 CRYSTAL
 PRIMVEC
    2.852871062    0.000000000    0.000000000
    0.000000000    2.852871062    0.000000000
    0.000000000    0.000000000   26.622393650
 PRIMCOORD
           9           1
Al        0.000000345    0.000000618    0.261711710
Al        1.426435904    1.426435922    2.223039252
Al        0.000000376    0.000000207    4.159382113
Al        1.426435824    1.426435826    6.130934799
Al        0.000000000    0.000000000    8.069137540
Al        1.426435419    1.426435386   10.007333767
Al       -0.000000227   -0.000000383   11.978887693
Al        1.426435126    1.426435214   13.915225354
Al       -0.000000556   -0.000000383   15.876554143
BEGIN_BLOCK_DATAGRID_3D
3D_PWSCF
DATAGRID_3D_UNKNOWN
          16          16         145
  0.000000  0.000000  0.000000
  2.852871  0.000000  0.000000
  0.000000  2.852871  0.000000
  0.000000  0.000000 26.622394
  0.307952E-02  0.517554E-02  0.122971E-01  0.226820E-01  0.302859E-01  0.319161E-01
  0.300621E-01  0.283110E-01  0.283110E-01  0.300621E-01  0.319161E-01  0.302859E-01
  0.226820E-01  0.122971E-01  0.517556E-02  0.307952E-02  0.517553E-02  0.743791E-02
  0.144844E-01  0.239620E-01  0.303520E-01  0.312422E-01  0.292037E-01  0.274827E-01
  0.274827E-01  0.292037E-01  0.312422E-01  0.303520E-01  0.239621E-01  0.144844E-01
  0.743793E-02  0.517553E-02  0.122971E-01  0.144844E-01  0.203519E-01  0.268844E-01
  0.301098E-01  0.292648E-01  0.268557E-01  0.252362E-01  0.252362E-01  0.268557E-01
  0.292648E-01  0.301099E-01  0.268844E-01  0.203520E-01  0.144844E-01  0.122971E-01
  0.226819E-01  0.239620E-01  0.268844E-01  0.290932E-01  0.287028E-01  0.262218E-01
  0.236094E-01  0.221662E-01  0.221662E-01  0.236094E-01  0.262218E-01  0.287028E-01
  0.290932E-01  0.268844E-01  0.239620E-01  0.226819E-01  0.302859E-01  0.303520E-01
  0.301098E-01  0.287028E-01  0.259274E-01  0.226962E-01  0.201922E-01  0.189478E-01
  0.189478E-01  0.201922E-01  0.226962E-01  0.259274E-01  0.287028E-01  0.301098E-01
  0.303520E-01  0.302859E-01  0.319161E-01  0.312422E-01  0.292648E-01  0.262218E-01
  0.226962E-01  0.194902E-01  0.172253E-01  0.161106E-01  0.161106E-01  0.172253E-01
  0.194902E-01  0.226962E-01  0.262218E-01  0.292648E-01  0.312422E-01  0.319161E-01
  0.300621E-01  0.292037E-01  0.268557E-01  0.236094E-01  0.201922E-01  0.172253E-01
  0.151014E-01  0.140072E-01  0.140072E-01  0.151014E-01  0.172253E-01  0.201922E-01
  0.236094E-01  0.268557E-01  0.292037E-01  0.300621E-01  0.283110E-01  0.274827E-01
  0.252362E-01  0.221662E-01  0.189477E-01  0.161106E-01  0.140072E-01  0.128824E-01
  0.128824E-01  0.140071E-01  0.161106E-01  0.189477E-01  0.221662E-01  0.252362E-01
  0.274827E-01  0.283110E-01  0.283110E-01  0.274827E-01  0.252362E-01  0.221662E-01
  0.189477E-01  0.161106E-01  0.140072E-01  0.128824E-01  0.128824E-01  0.140071E-01
  0.161106E-01  0.189477E-01  0.221662E-01  0.252362E-01  0.274827E-01  0.283110E-01
  0.300621E-01  0.292037E-01  0.268557E-01  0.236094E-01  0.201922E-01  0.172253E-01
  0.151014E-01  0.140071E-01  0.140071E-01  0.151014E-01  0.172253E-01  0.201922E-01
  0.236094E-01  0.268557E-01  0.292037E-01  0.300621E-01  0.319161E-01  0.312422E-01
  0.292648E-01  0.262218E-01  0.226962E-01  0.194902E-01  0.172253E-01  0.161106E-01
  0.161106E-01  0.172253E-01  0.194902E-01  0.226962E-01  0.262217E-01  0.292648E-01
  0.312422E-01  0.319161E-01  0.302860E-01  0.303520E-01  0.301099E-01  0.287028E-01
  0.259274E-01  0.226962E-01  0.201922E-01  0.189477E-01  0.189477E-01  0.201922E-01
  0.226962E-01  0.259274E-01  0.287027E-01  0.301099E-01  0.303520E-01  0.302860E-01
  0.226820E-01  0.239621E-01  0.268844E-01  0.290932E-01  0.287028E-01  0.262218E-01
  0.236094E-01  0.221662E-01  0.221662E-01  0.236094E-01  0.262217E-01  0.287027E-01
  0.290932E-01  0.268844E-01  0.239621E-01  0.226820E-01  0.122971E-01  0.144844E-01
  0.203520E-01  0.268844E-01  0.301098E-01  0.292648E-01  0.268557E-01  0.252362E-01
  0.252362E-01  0.268557E-01  0.292648E-01  0.301098E-01  0.268844E-01  0.203520E-01
  0.144844E-01  0.122971E-01  0.517556E-02  0.743794E-02  0.144844E-01  0.239621E-01
  0.303520E-01  0.312422E-01  0.292037E-01  0.274827E-01  0.274827E-01  0.292037E-01
  0.312422E-01  0.303520E-01  0.239621E-01  0.144844E-01  0.743796E-02  0.517556E-02
  0.307952E-02  0.517554E-02  0.122971E-01  0.226820E-01  0.302859E-01  0.319161E-01
  0.300621E-01  0.283110E-01  0.283110E-01  0.300621E-01  0.319161E-01  0.302859E-01
  0.226820E-01  0.122971E-01  0.517556E-02  0.307952E-02  0.400624E-03  0.185272E-02
  0.850750E-02  0.203118E-01  0.303125E-01  0.335527E-01  0.321828E-01  0.304286E-01
  0.304285E-01  0.321828E-01  0.335527E-01  0.303125E-01  0.203118E-01  0.850754E-02
  0.185273E-02  0.400624E-03  0.185271E-02  0.375340E-02  0.108394E-01  0.219508E-01
  0.306172E-01  0.329385E-01  0.312995E-01  0.295589E-01  0.295589E-01  0.312995E-01
  0.329385E-01  0.306172E-01  0.219509E-01  0.108395E-01  0.375341E-02  0.185271E-02
  0.850749E-02  0.108394E-01  0.175800E-01  0.259198E-01  0.309644E-01  0.310829E-01
  0.288764E-01  0.272060E-01  0.272060E-01  0.288763E-01  0.310829E-01  0.309644E-01
  0.259198E-01  0.175800E-01  0.108394E-01  0.850749E-02  0.203118E-01  0.219508E-01
  0.259198E-01  0.295067E-01  0.301678E-01  0.281071E-01  0.255119E-01  0.240040E-01
  0.240040E-01  0.255119E-01  0.281070E-01  0.301678E-01  0.295067E-01  0.259198E-01
  0.219508E-01  0.203118E-01  0.303124E-01  0.306172E-01  0.309644E-01  0.301678E-01
  0.277267E-01  0.245360E-01  0.219576E-01  0.206599E-01  0.206598E-01  0.219576E-01
  0.245360E-01  0.277267E-01  0.301678E-01  0.309644E-01  0.306172E-01  0.303124E-01
  0.335527E-01  0.329385E-01  0.310829E-01  0.281071E-01  0.245360E-01  0.212216E-01
  0.188676E-01  0.177139E-01  0.177139E-01  0.188675E-01  0.212216E-01  0.245360E-01
  0.281070E-01  0.310829E-01  0.329385E-01  0.335527E-01  0.321828E-01  0.312995E-01
  0.288764E-01  0.255119E-01  0.219576E-01  0.188676E-01  0.166579E-01  0.155218E-01
  0.155218E-01  0.166579E-01  0.188675E-01  0.219576E-01  0.255119E-01  0.288763E-01
  0.312995E-01  0.321828E-01  0.304286E-01  0.295589E-01  0.272060E-01  0.240040E-01
  0.206598E-01  0.177139E-01  0.155218E-01  0.143434E-01  0.143434E-01  0.155218E-01
  0.177139E-01  0.206598E-01  0.240040E-01  0.272060E-01  0.295589E-01  0.304286E-01
  0.304285E-01  0.295589E-01  0.272060E-01  0.240040E-01  0.206598E-01  0.177139E-01
  0.155218E-01  0.143434E-01  0.143434E-01  0.155218E-01  0.177139E-01  0.206598E-01
  0.240040E-01  0.272060E-01  0.295589E-01  0.304285E-01  0.321828E-01  0.312995E-01
  0.288763E-01  0.255119E-01  0.219576E-01  0.188675E-01  0.166579E-01  0.155218E-01
  0.155218E-01  0.166579E-01  0.188675E-01  0.219576E-01  0.255119E-01  0.288763E-01
  0.312995E-01  0.321828E-01  0.335527E-01  0.329385E-01  0.310829E-01  0.281070E-01
  0.245360E-01  0.212215E-01  0.188675E-01  0.177139E-01  0.177139E-01  0.188675E-01
  0.212215E-01  0.245359E-01  0.281070E-01  0.310829E-01  0.329385E-01  0.335527E-01
  0.303125E-01  0.306172E-01  0.309644E-01  0.301678E-01  0.277267E-01  0.245359E-01
  0.219576E-01  0.206598E-01  0.206598E-01  0.219575E-01  0.245359E-01  0.277267E-01
  0.301678E-01  0.309644E-01  0.306172E-01  0.303125E-01  0.203119E-01  0.219509E-01
  0.259199E-01  0.295068E-01  0.301678E-01  0.281070E-01  0.255119E-01  0.240040E-01
  0.240040E-01  0.255119E-01  0.281070E-01  0.301678E-01  0.295068E-01  0.259199E-01
  0.219509E-01  0.203119E-01  0.850755E-02  0.108395E-01  0.175801E-01  0.259198E-01
  0.309644E-01  0.310829E-01  0.288763E-01  0.272060E-01  0.272060E-01  0.288763E-01
  0.310829E-01  0.309644E-01  0.259199E-01  0.175801E-01  0.108395E-01  0.850755E-02
  0.185274E-02  0.375342E-02  0.108395E-01  0.219509E-01  0.306172E-01  0.329385E-01
  0.312995E-01  0.295589E-01  0.295589E-01  0.312995E-01  0.329385E-01  0.306172E-01
  0.219509E-01  0.108395E-01  0.375344E-02  0.185274E-02  0.400624E-03  0.185272E-02
  0.850750E-02  0.203118E-01  0.303125E-01  0.335527E-01  0.321828E-01  0.304286E-01
  0.304285E-01  0.321828E-01  0.335527E-01  0.303125E-01  0.203118E-01  0.850754E-02
  0.185273E-02  0.400624E-03  0.418553E-03  0.198554E-02  0.887544E-02  0.208612E-01
  0.309581E-01  0.342775E-01  0.329965E-01  0.313063E-01  0.313063E-01  0.329965E-01
  0.342775E-01  0.309581E-01  0.208612E-01  0.887547E-02  0.198556E-02  0.418553E-03
  0.198554E-02  0.397909E-02  0.112576E-01  0.225272E-01  0.312944E-01  0.337066E-01
  0.321605E-01  0.304829E-01  0.304829E-01  0.321605E-01  0.337066E-01  0.312944E-01
  0.225272E-01  0.112577E-01  0.397910E-02  0.198554E-02  0.887542E-02  0.112576E-01
  0.181122E-01  0.265749E-01  0.317383E-01  0.319730E-01  0.298651E-01  0.282532E-01
  0.282532E-01  0.298650E-01  0.319730E-01  0.317383E-01  0.265749E-01  0.181122E-01
  0.112576E-01  0.887542E-02  0.208611E-01  0.225272E-01  0.265749E-01  0.302857E-01
  0.310955E-01  0.291718E-01  0.266745E-01  0.252168E-01  0.252168E-01  0.266745E-01
  0.291718E-01  0.310955E-01  0.302857E-01  0.265749E-01  0.225272E-01  0.208611E-01
  0.309580E-01  0.312944E-01  0.317383E-01  0.310955E-01  0.288289E-01  0.257841E-01
  0.232980E-01  0.220420E-01  0.220420E-01  0.232980E-01  0.257841E-01  0.288289E-01
  0.310955E-01  0.317383E-01  0.312944E-01  0.309580E-01  0.342775E-01  0.337066E-01
  0.319730E-01  0.291718E-01  0.257841E-01  0.226156E-01  0.203482E-01  0.192297E-01
  0.192297E-01  0.203482E-01  0.226156E-01  0.257841E-01  0.291718E-01  0.319730E-01
  0.337066E-01  0.342775E-01  0.329965E-01  0.321605E-01  0.298651E-01  0.266745E-01
  0.232980E-01  0.203482E-01  0.182185E-01  0.171115E-01  0.171115E-01  0.182185E-01
  0.203482E-01  0.232979E-01  0.266745E-01  0.298650E-01  0.321605E-01  0.329965E-01
  0.313063E-01  0.304829E-01  0.282532E-01  0.252168E-01  0.220420E-01  0.192297E-01
  0.171115E-01  0.159571E-01  0.159571E-01  0.171115E-01  0.192297E-01  0.220420E-01
  0.252168E-01  0.282531E-01  0.304829E-01  0.313063E-01  0.313063E-01  0.304829E-01
  0.282531E-01  0.252168E-01  0.220420E-01  0.192297E-01  0.171115E-01  0.159571E-01
  0.159571E-01  0.171115E-01  0.192297E-01  0.220420E-01  0.252168E-01  0.282531E-01
  0.304829E-01  0.313063E-01  0.329965E-01  0.321605E-01  0.298650E-01  0.266745E-01
  0.232979E-01  0.203482E-01  0.182185E-01  0.171115E-01  0.171115E-01  0.182185E-01
  0.203482E-01  0.232979E-01  0.266745E-01  0.298650E-01  0.321605E-01  0.329965E-01
  0.342775E-01  0.337066E-01  0.319730E-01  0.291718E-01  0.257841E-01  0.226156E-01
  0.203482E-01  0.192297E-01  0.192297E-01  0.203482E-01  0.226156E-01  0.257841E-01
  0.291718E-01  0.319730E-01  0.337066E-01  0.342775E-01  0.309581E-01  0.312944E-01
  0.317383E-01  0.310955E-01  0.288289E-01  0.257841E-01  0.232979E-01  0.220420E-01
  0.220420E-01  0.232979E-01  0.257841E-01  0.288289E-01  0.310955E-01  0.317383E-01
  0.312944E-01  0.309581E-01  0.208612E-01  0.225272E-01  0.265749E-01  0.302857E-01
  0.310955E-01  0.291718E-01  0.266745E-01  0.252168E-01  0.252167E-01  0.266745E-01
  0.291718E-01  0.310955E-01  0.302858E-01  0.265749E-01  0.225272E-01  0.208612E-01
  0.887549E-02  0.112577E-01  0.181122E-01  0.265749E-01  0.317383E-01  0.319730E-01
  0.298650E-01  0.282531E-01  0.282531E-01  0.298650E-01  0.319730E-01  0.317383E-01
  0.265749E-01  0.181123E-01  0.112577E-01  0.887549E-02  0.198556E-02  0.397911E-02
  0.112577E-01  0.225272E-01  0.312944E-01  0.337066E-01  0.321605E-01  0.304829E-01
  0.304829E-01  0.321605E-01  0.337066E-01  0.312944E-01  0.225272E-01  0.112577E-01
  0.397913E-02  0.198556E-02  0.418553E-03  0.198554E-02  0.887544E-02  0.208612E-01
  0.309581E-01  0.342775E-01  0.329965E-01  0.313063E-01  0.313063E-01  0.329965E-01
  0.342775E-01  0.309581E-01  0.208612E-01  0.887547E-02  0.198556E-02  0.418553E-03
  0.365794E-02  0.599614E-02  0.136269E-01  0.244511E-01  0.323651E-01  0.342853E-01
  0.327185E-01  0.311583E-01  0.311583E-01  0.327185E-01  0.342853E-01  0.323651E-01
  0.244511E-01  0.136270E-01  0.599616E-02  0.365794E-02  0.599613E-02  0.845833E-02
  0.159382E-01  0.258268E-01  0.325533E-01  0.337650E-01  0.320224E-01  0.304887E-01
  0.304887E-01  0.320224E-01  0.337650E-01  0.325533E-01  0.258269E-01  0.159382E-01
  0.845835E-02  0.599613E-02  0.136269E-01  0.159382E-01  0.221123E-01  0.290282E-01
  0.326595E-01  0.321986E-01  0.300947E-01  0.286488E-01  0.286488E-01  0.300947E-01
  0.321986E-01  0.326595E-01  0.290282E-01  0.221123E-01  0.159382E-01  0.136269E-01
  0.244511E-01  0.258268E-01  0.290282E-01  0.316635E-01  0.317578E-01  0.297015E-01
  0.273831E-01  0.260889E-01  0.260889E-01  0.273831E-01  0.297015E-01  0.317578E-01
  0.316635E-01  0.290282E-01  0.258268E-01  0.244511E-01  0.323651E-01  0.325533E-01
  0.326595E-01  0.317578E-01  0.295155E-01  0.267133E-01  0.244776E-01  0.233550E-01
  0.233550E-01  0.244776E-01  0.267133E-01  0.295155E-01  0.317578E-01  0.326595E-01
  0.325533E-01  0.323651E-01  0.342853E-01  0.337650E-01  0.321986E-01  0.297015E-01
  0.267133E-01  0.239202E-01  0.218981E-01  0.208826E-01  0.208826E-01  0.218981E-01
  0.239202E-01  0.267133E-01  0.297015E-01  0.321986E-01  0.337650E-01  0.342853E-01
  0.327185E-01  0.320224E-01  0.300947E-01  0.273831E-01  0.244776E-01  0.218981E-01
  0.199923E-01  0.189780E-01  0.189780E-01  0.199923E-01  0.218981E-01  0.244776E-01
  0.273831E-01  0.300947E-01  0.320224E-01  0.327185E-01  0.311583E-01  0.304887E-01
  0.286488E-01  0.260889E-01  0.233550E-01  0.208826E-01  0.189780E-01  0.179194E-01
  0.179194E-01  0.189780E-01  0.208826E-01  0.233550E-01  0.260889E-01  0.286488E-01
  0.304887E-01  0.311583E-01  0.311583E-01  0.304887E-01  0.286488E-01  0.260889E-01
  0.233550E-01  0.208826E-01  0.189780E-01  0.179194E-01  0.179194E-01  0.189780E-01
  0.208826E-01  0.233550E-01  0.260889E-01  0.286488E-01  0.304887E-01  0.311583E-01
  0.327185E-01  0.320224E-01  0.300947E-01  0.273831E-01  0.244775E-01  0.218981E-01
  0.199923E-01  0.189780E-01  0.189780E-01  0.199923E-01  0.218980E-01  0.244775E-01
  0.273831E-01  0.300947E-01  0.320224E-01  0.327185E-01  0.342853E-01  0.337650E-01
  0.321986E-01  0.297015E-01  0.267133E-01  0.239202E-01  0.218981E-01  0.208826E-01
  0.208826E-01  0.218980E-01  0.239202E-01  0.267133E-01  0.297015E-01  0.321986E-01
  0.337650E-01  0.342853E-01  0.323651E-01  0.325533E-01  0.326595E-01  0.317578E-01
  0.295155E-01  0.267133E-01  0.244775E-01  0.233550E-01  0.233550E-01  0.244775E-01
  0.267133E-01  0.295155E-01  0.317578E-01  0.326595E-01  0.325533E-01  0.323651E-01
  0.244511E-01  0.258269E-01  0.290283E-01  0.316635E-01  0.317578E-01  0.297015E-01
  0.273831E-01  0.260889E-01  0.260889E-01  0.273831E-01  0.297015E-01  0.317577E-01
  0.316635E-01  0.290283E-01  0.258269E-01  0.244511E-01  0.136270E-01  0.159382E-01
  0.221123E-01  0.290282E-01  0.326595E-01  0.321986E-01  0.300947E-01  0.286488E-01
  0.286488E-01  0.300947E-01  0.321986E-01  0.326595E-01  0.290283E-01  0.221124E-01
  0.159383E-01  0.136270E-01  0.599616E-02  0.845836E-02  0.159382E-01  0.258268E-01
  0.325533E-01  0.337650E-01  0.320224E-01  0.304887E-01  0.304887E-01  0.320224E-01
  0.337650E-01  0.325533E-01  0.258269E-01  0.159382E-01  0.845838E-02  0.599616E-02
  0.365794E-02  0.599614E-02  0.136269E-01  0.244511E-01  0.323651E-01  0.342853E-01
  0.327185E-01  0.311583E-01  0.311583E-01  0.327185E-01  0.342853E-01  0.323651E-01
  0.244511E-01  0.136270E-01  0.599616E-02  0.365794E-02  0.123307E-01  0.148213E-01
  0.215174E-01  0.291714E-01  0.335154E-01  0.335718E-01  0.317776E-01  0.304778E-01
  0.304778E-01  0.317776E-01  0.335717E-01  0.335154E-01  0.291715E-01  0.215174E-01
  0.148213E-01  0.123307E-01  0.148213E-01  0.171702E-01  0.233100E-01  0.300246E-01
  0.335151E-01  0.331581E-01  0.312994E-01  0.300368E-01  0.300368E-01  0.312994E-01
  0.331581E-01  0.335151E-01  0.300246E-01  0.233100E-01  0.171702E-01  0.148213E-01
  0.215174E-01  0.233100E-01  0.276753E-01  0.318297E-01  0.332091E-01  0.319103E-01
  0.299368E-01  0.287728E-01  0.287728E-01  0.299368E-01  0.319103E-01  0.332091E-01
  0.318297E-01  0.276753E-01  0.233100E-01  0.215174E-01  0.291714E-01  0.300246E-01
  0.318297E-01  0.328722E-01  0.320412E-01  0.299263E-01  0.279427E-01  0.269074E-01
  0.269074E-01  0.279427E-01  0.299263E-01  0.320412E-01  0.328722E-01  0.318297E-01
  0.300246E-01  0.291714E-01  0.335154E-01  0.335151E-01  0.332091E-01  0.320412E-01
  0.299390E-01  0.275624E-01  0.257273E-01  0.248094E-01  0.248094E-01  0.257273E-01
  0.275624E-01  0.299390E-01  0.320412E-01  0.332091E-01  0.335151E-01  0.335154E-01
  0.335718E-01  0.331581E-01  0.319103E-01  0.299263E-01  0.275624E-01  0.253404E-01
  0.236941E-01  0.228405E-01  0.228405E-01  0.236941E-01  0.253404E-01  0.275624E-01
  0.299263E-01  0.319103E-01  0.331581E-01  0.335718E-01  0.317776E-01  0.312994E-01
  0.299368E-01  0.279427E-01  0.257273E-01  0.236941E-01  0.221378E-01  0.212830E-01
  0.212830E-01  0.221378E-01  0.236941E-01  0.257273E-01  0.279427E-01  0.299368E-01
  0.312994E-01  0.317776E-01  0.304778E-01  0.300368E-01  0.287728E-01  0.269074E-01
  0.248094E-01  0.228405E-01  0.212830E-01  0.204010E-01  0.204010E-01  0.212830E-01
  0.228405E-01  0.248094E-01  0.269074E-01  0.287728E-01  0.300368E-01  0.304778E-01
  0.304778E-01  0.300368E-01  0.287728E-01  0.269074E-01  0.248094E-01  0.228405E-01
  0.212830E-01  0.204010E-01  0.204010E-01  0.212829E-01  0.228405E-01  0.248094E-01
  0.269074E-01  0.287728E-01  0.300368E-01  0.304778E-01  0.317775E-01  0.312994E-01
  0.299367E-01  0.279427E-01  0.257273E-01  0.236941E-01  0.221378E-01  0.212829E-01
  0.212829E-01  0.221378E-01  0.236941E-01  0.257273E-01  0.279427E-01  0.299367E-01
  0.312994E-01  0.317775E-01  0.335717E-01  0.331581E-01  0.319103E-01  0.299263E-01
  0.275624E-01  0.253404E-01  0.236941E-01  0.228405E-01  0.228405E-01  0.236941E-01
  0.253404E-01  0.275624E-01  0.299263E-01  0.319103E-01  0.331581E-01  0.335717E-01
  0.335154E-01  0.335151E-01  0.332091E-01  0.320412E-01  0.299390E-01  0.275624E-01
  0.257273E-01  0.248094E-01  0.248094E-01  0.257273E-01  0.275624E-01  0.299390E-01
  0.320412E-01  0.332091E-01  0.335151E-01  0.335154E-01  0.291715E-01  0.300246E-01
  0.318297E-01  0.328722E-01  0.320412E-01  0.299263E-01  0.279427E-01  0.269074E-01
  0.269074E-01  0.279427E-01  0.299263E-01  0.320412E-01  0.328722E-01  0.318297E-01
  0.300246E-01  0.291715E-01  0.215174E-01  0.233100E-01  0.276754E-01  0.318297E-01
  0.332091E-01  0.319103E-01  0.299367E-01  0.287728E-01  0.287728E-01  0.299367E-01
  0.319103E-01  0.332091E-01  0.318297E-01  0.276754E-01  0.233100E-01  0.215174E-01
  0.148213E-01  0.171702E-01  0.233100E-01  0.300246E-01  0.335151E-01  0.331581E-01
  0.312994E-01  0.300368E-01  0.300368E-01  0.312994E-01  0.331581E-01  0.335151E-01
  0.300246E-01  0.233100E-01  0.171702E-01  0.148213E-01  0.123307E-01  0.148213E-01
  0.215174E-01  0.291714E-01  0.335154E-01  0.335718E-01  0.317776E-01  0.304778E-01
  0.304778E-01  0.317776E-01  0.335717E-01  0.335154E-01  0.291715E-01  0.215174E-01
  0.148213E-01  0.123307E-01  0.229283E-01  0.245744E-01  0.285052E-01  0.321493E-01
  0.333363E-01  0.322659E-01  0.306780E-01  0.297720E-01  0.297720E-01  0.306780E-01
  0.322659E-01  0.333363E-01  0.321493E-01  0.285052E-01  0.245744E-01  0.229283E-01
  0.245744E-01  0.260406E-01  0.294746E-01  0.325056E-01  0.332521E-01  0.320205E-01
  0.304365E-01  0.295619E-01  0.295619E-01  0.304365E-01  0.320205E-01  0.332521E-01
  0.325056E-01  0.294747E-01  0.260406E-01  0.245744E-01  0.285052E-01  0.294746E-01
  0.315975E-01  0.331043E-01  0.328267E-01  0.312608E-01  0.297104E-01  0.289114E-01
  0.289114E-01  0.297104E-01  0.312607E-01  0.328267E-01  0.331043E-01  0.315975E-01
  0.294746E-01  0.285052E-01  0.321493E-01  0.325056E-01  0.331043E-01  0.330027E-01
  0.317895E-01  0.300226E-01  0.285734E-01  0.278562E-01  0.278562E-01  0.285734E-01
  0.300225E-01  0.317895E-01  0.330027E-01  0.331043E-01  0.325056E-01  0.321493E-01
  0.333363E-01  0.332521E-01  0.328267E-01  0.317895E-01  0.302027E-01  0.285207E-01
  0.272346E-01  0.265783E-01  0.265783E-01  0.272345E-01  0.285207E-01  0.302027E-01
  0.317895E-01  0.328267E-01  0.332521E-01  0.333363E-01  0.322659E-01  0.320205E-01
  0.312608E-01  0.300226E-01  0.285207E-01  0.270690E-01  0.259371E-01  0.253151E-01
  0.253151E-01  0.259371E-01  0.270690E-01  0.285207E-01  0.300226E-01  0.312607E-01
  0.320205E-01  0.322659E-01  0.306780E-01  0.304365E-01  0.297104E-01  0.285734E-01
  0.272345E-01  0.259371E-01  0.248836E-01  0.242745E-01  0.242745E-01  0.248836E-01
  0.259371E-01  0.272345E-01  0.285734E-01  0.297104E-01  0.304365E-01  0.306780E-01
  0.297720E-01  0.295619E-01  0.289114E-01  0.278562E-01  0.265783E-01  0.253151E-01
  0.242745E-01  0.236675E-01  0.236675E-01  0.242745E-01  0.253150E-01  0.265783E-01
  0.278562E-01  0.289114E-01  0.295619E-01  0.297720E-01  0.297720E-01  0.295619E-01
  0.289114E-01  0.278562E-01  0.265783E-01  0.253151E-01  0.242745E-01  0.236675E-01
  0.236675E-01  0.242745E-01  0.253150E-01  0.265783E-01  0.278561E-01  0.289114E-01
  0.295619E-01  0.297720E-01  0.306780E-01  0.304365E-01  0.297104E-01  0.285734E-01
  0.272345E-01  0.259371E-01  0.248836E-01  0.242745E-01  0.242745E-01  0.248836E-01
  0.259371E-01  0.272345E-01  0.285734E-01  0.297104E-01  0.304365E-01  0.306780E-01
  0.322659E-01  0.320204E-01  0.312607E-01  0.300225E-01  0.285207E-01  0.270690E-01
  0.259371E-01  0.253150E-01  0.253150E-01  0.259371E-01  0.270690E-01  0.285207E-01
  0.300225E-01  0.312607E-01  0.320204E-01  0.322659E-01  0.333363E-01  0.332521E-01
  0.328267E-01  0.317895E-01  0.302027E-01  0.285207E-01  0.272345E-01  0.265783E-01
  0.265783E-01  0.272345E-01  0.285207E-01  0.302027E-01  0.317895E-01  0.328267E-01
  0.332521E-01  0.333363E-01  0.321493E-01  0.325056E-01  0.331043E-01  0.330027E-01
  0.317895E-01  0.300225E-01  0.285734E-01  0.278561E-01  0.278561E-01  0.285734E-01
  0.300225E-01  0.317895E-01  0.330027E-01  0.331043E-01  0.325056E-01  0.321493E-01
  0.285052E-01  0.294747E-01  0.315975E-01  0.331043E-01  0.328267E-01  0.312607E-01
  0.297104E-01  0.289114E-01  0.289114E-01  0.297104E-01  0.312607E-01  0.328267E-01
  0.331043E-01  0.315975E-01  0.294747E-01  0.285052E-01  0.245744E-01  0.260406E-01
  0.294746E-01  0.325056E-01  0.332521E-01  0.320205E-01  0.304365E-01  0.295619E-01
  0.295619E-01  0.304365E-01  0.320204E-01  0.332521E-01  0.325056E-01  0.294747E-01
  0.260406E-01  0.245744E-01  0.229283E-01  0.245744E-01  0.285052E-01  0.321493E-01
  0.333363E-01  0.322659E-01  0.306780E-01  0.297720E-01  0.297720E-01  0.306780E-01
  0.322659E-01  0.333363E-01  0.321493E-01  0.285052E-01  0.245744E-01  0.229283E-01
  0.288714E-01  0.295422E-01  0.309882E-01  0.319868E-01  0.317917E-01  0.307776E-01
  0.298094E-01  0.293325E-01  0.293325E-01  0.298094E-01  0.307776E-01  0.317917E-01
  0.319868E-01  0.309882E-01  0.295422E-01  0.288714E-01  0.295422E-01  0.301262E-01
  0.313519E-01  0.321103E-01  0.317701E-01  0.307240E-01  0.297749E-01  0.293146E-01
  0.293146E-01  0.297749E-01  0.307240E-01  0.317701E-01  0.321103E-01  0.313519E-01
  0.301262E-01  0.295422E-01  0.309882E-01  0.313519E-01  0.320379E-01  0.322460E-01
  0.316154E-01  0.305453E-01  0.296652E-01  0.292471E-01  0.292471E-01  0.296652E-01
  0.305452E-01  0.316154E-01  0.322460E-01  0.320379E-01  0.313519E-01  0.309882E-01
  0.319868E-01  0.321103E-01  0.322460E-01  0.319749E-01  0.311951E-01  0.302289E-01
  0.294743E-01  0.291017E-01  0.291017E-01  0.294743E-01  0.302289E-01  0.311951E-01
  0.319749E-01  0.322460E-01  0.321103E-01  0.319868E-01  0.317917E-01  0.317701E-01
  0.316154E-01  0.311951E-01  0.305325E-01  0.298000E-01  0.291881E-01  0.288401E-01
  0.288401E-01  0.291881E-01  0.298000E-01  0.305325E-01  0.311951E-01  0.316154E-01
  0.317701E-01  0.317917E-01  0.307776E-01  0.307240E-01  0.305453E-01  0.302289E-01
  0.298000E-01  0.292921E-01  0.287767E-01  0.284275E-01  0.284275E-01  0.287767E-01
  0.292921E-01  0.298000E-01  0.302289E-01  0.305453E-01  0.307240E-01  0.307776E-01
  0.298094E-01  0.297749E-01  0.296652E-01  0.294743E-01  0.291881E-01  0.287767E-01
  0.282863E-01  0.279258E-01  0.279258E-01  0.282863E-01  0.287767E-01  0.291881E-01
  0.294743E-01  0.296652E-01  0.297749E-01  0.298094E-01  0.293325E-01  0.293146E-01
  0.292471E-01  0.291016E-01  0.288401E-01  0.284275E-01  0.279258E-01  0.275588E-01
  0.275588E-01  0.279258E-01  0.284275E-01  0.288401E-01  0.291016E-01  0.292471E-01
  0.293146E-01  0.293325E-01  0.293325E-01  0.293146E-01  0.292471E-01  0.291016E-01
  0.288401E-01  0.284275E-01  0.279258E-01  0.275588E-01  0.275588E-01  0.279258E-01
  0.284275E-01  0.288401E-01  0.291016E-01  0.292471E-01  0.293146E-01  0.293325E-01
  0.298094E-01  0.297749E-01  0.296652E-01  0.294743E-01  0.291881E-01  0.287767E-01
  0.282863E-01  0.279258E-01  0.279258E-01  0.282863E-01  0.287767E-01  0.291881E-01
  0.294743E-01  0.296652E-01  0.297749E-01  0.298094E-01  0.307776E-01  0.307240E-01
  0.305452E-01  0.302289E-01  0.298000E-01  0.292921E-01  0.287767E-01  0.284275E-01
  0.284275E-01  0.287767E-01  0.292921E-01  0.298000E-01  0.302289E-01  0.305452E-01
  0.307240E-01  0.307776E-01  0.317917E-01  0.317701E-01  0.316154E-01  0.311951E-01
  0.305325E-01  0.298000E-01  0.291881E-01  0.288401E-01  0.288401E-01  0.291881E-01
  0.298000E-01  0.305325E-01  0.311951E-01  0.316154E-01  0.317701E-01  0.317917E-01
  0.319868E-01  0.321103E-01  0.322460E-01  0.319749E-01  0.311951E-01  0.302289E-01
  0.294743E-01  0.291016E-01  0.291016E-01  0.294743E-01  0.302289E-01  0.311951E-01
  0.319749E-01  0.322460E-01  0.321103E-01  0.319868E-01  0.309882E-01  0.313519E-01
  0.320379E-01  0.322460E-01  0.316154E-01  0.305452E-01  0.296652E-01  0.292471E-01
  0.292471E-01  0.296652E-01  0.305452E-01  0.316154E-01  0.322460E-01  0.320379E-01
  0.313519E-01  0.309882E-01  0.295422E-01  0.301262E-01  0.313519E-01  0.321103E-01
  0.317701E-01  0.307240E-01  0.297749E-01  0.293146E-01  0.293146E-01  0.297749E-01
  0.307240E-01  0.317701E-01  0.321103E-01  0.313519E-01  0.301262E-01  0.295422E-01
  0.288714E-01  0.295422E-01  0.309882E-01  0.319868E-01  0.317917E-01  0.307776E-01
  0.298094E-01  0.293325E-01  0.293325E-01  0.298094E-01  0.307776E-01  0.317917E-01
  0.319868E-01  0.309882E-01  0.295422E-01  0.288714E-01  0.286054E-01  0.288407E-01
  0.293435E-01  0.297114E-01  0.297334E-01  0.295251E-01  0.293133E-01  0.292082E-01
  0.292082E-01  0.293133E-01  0.295251E-01  0.297334E-01  0.297114E-01  0.293435E-01
  0.288407E-01  0.286054E-01  0.288407E-01  0.290636E-01  0.295315E-01  0.298584E-01
  0.298587E-01  0.296565E-01  0.294629E-01  0.293702E-01  0.293702E-01  0.294629E-01
  0.296565E-01  0.298587E-01  0.298584E-01  0.295316E-01  0.290636E-01  0.288407E-01
  0.293435E-01  0.295316E-01  0.299195E-01  0.301857E-01  0.301997E-01  0.300722E-01
  0.299538E-01  0.298988E-01  0.298988E-01  0.299538E-01  0.300722E-01  0.301997E-01
  0.301857E-01  0.299195E-01  0.295316E-01  0.293435E-01  0.297114E-01  0.298584E-01
  0.301857E-01  0.304883E-01  0.306671E-01  0.307374E-01  0.307397E-01  0.307190E-01
  0.307190E-01  0.307397E-01  0.307374E-01  0.306671E-01  0.304883E-01  0.301857E-01
  0.298584E-01  0.297114E-01  0.297334E-01  0.298587E-01  0.301997E-01  0.306671E-01
  0.311255E-01  0.314142E-01  0.314643E-01  0.313978E-01  0.313978E-01  0.314643E-01
  0.314142E-01  0.311255E-01  0.306671E-01  0.301997E-01  0.298587E-01  0.297334E-01
  0.295251E-01  0.296565E-01  0.300722E-01  0.307374E-01  0.314142E-01  0.317568E-01
  0.316571E-01  0.314156E-01  0.314156E-01  0.316571E-01  0.317568E-01  0.314142E-01
  0.307374E-01  0.300722E-01  0.296565E-01  0.295251E-01  0.293133E-01  0.294629E-01
  0.299538E-01  0.307397E-01  0.314643E-01  0.316571E-01  0.312574E-01  0.307760E-01
  0.307760E-01  0.312574E-01  0.316571E-01  0.314643E-01  0.307397E-01  0.299538E-01
  0.294629E-01  0.293133E-01  0.292082E-01  0.293702E-01  0.298988E-01  0.307190E-01
  0.313978E-01  0.314156E-01  0.307760E-01  0.301267E-01  0.301267E-01  0.307760E-01
  0.314156E-01  0.313978E-01  0.307190E-01  0.298988E-01  0.293702E-01  0.292082E-01
  0.292082E-01  0.293702E-01  0.298988E-01  0.307190E-01  0.313978E-01  0.314156E-01
  0.307760E-01  0.301267E-01  0.301267E-01  0.307760E-01  0.314156E-01  0.313978E-01
  0.307190E-01  0.298988E-01  0.293702E-01  0.292082E-01  0.293133E-01  0.294629E-01
  0.299538E-01  0.307397E-01  0.314643E-01  0.316571E-01  0.312574E-01  0.307760E-01
  0.307760E-01  0.312574E-01  0.316571E-01  0.314643E-01  0.307397E-01  0.299538E-01
  0.294629E-01  0.293133E-01  0.295251E-01  0.296565E-01  0.300722E-01  0.307373E-01
  0.314142E-01  0.317568E-01  0.316571E-01  0.314156E-01  0.314156E-01  0.316571E-01
  0.317568E-01  0.314142E-01  0.307373E-01  0.300722E-01  0.296565E-01  0.295251E-01
  0.297334E-01  0.298587E-01  0.301997E-01  0.306671E-01  0.311255E-01  0.314142E-01
  0.314643E-01  0.313978E-01  0.313978E-01  0.314643E-01  0.314142E-01  0.311255E-01
  0.306671E-01  0.301997E-01  0.298587E-01  0.297334E-01  0.297114E-01  0.298583E-01
  0.301857E-01  0.304882E-01  0.306671E-01  0.307373E-01  0.307397E-01  0.307190E-01
  0.307190E-01  0.307397E-01  0.307373E-01  0.306671E-01  0.304882E-01  0.301857E-01
  0.298584E-01  0.297114E-01  0.293435E-01  0.295315E-01  0.299195E-01  0.301857E-01
  0.301997E-01  0.300722E-01  0.299538E-01  0.298988E-01  0.298988E-01  0.299538E-01
  0.300722E-01  0.301997E-01  0.301857E-01  0.299195E-01  0.295315E-01  0.293435E-01
  0.288407E-01  0.290636E-01  0.295315E-01  0.298584E-01  0.298587E-01  0.296565E-01
  0.294629E-01  0.293702E-01  0.293702E-01  0.294629E-01  0.296565E-01  0.298587E-01
  0.298584E-01  0.295316E-01  0.290636E-01  0.288407E-01  0.286054E-01  0.288407E-01
  0.293435E-01  0.297114E-01  0.297334E-01  0.295251E-01  0.293133E-01  0.292082E-01
  0.292082E-01  0.293133E-01  0.295251E-01  0.297334E-01  0.297114E-01  0.293435E-01
  0.288407E-01  0.286054E-01  0.254131E-01  0.256537E-01  0.262782E-01  0.270909E-01