 CRYSTAL
 PRIMVEC
    2.794539329    0.000000000    0.000000000
    0.000000000    2.794539329    0.000000000
    0.000000000    0.000000000   31.261606046
 PRIMCOORD
          11           1
Al        1.397269601    1.397269728   -0.042437520
Al        0.000000037   -0.000000022    1.973863053
Al        1.397269726    1.397269587    3.966890597
Al       -0.000000031    0.000000069    5.938955609
Al        1.397269555    1.397269644    7.899247335
Al        0.000000000    0.000000000    9.880188813
Al        1.397269599    1.397269538   11.861129200
Al        0.000000025    0.000000024   13.821421378
Al        1.397269720    1.397269701   15.793487008
Al        0.000000048    0.000000013   17.786510992
Al        1.397269685    1.397269515   19.802813920
BEGIN_BLOCK_DATAGRID_3D
3D_PWSCF
DATAGRID_3D_UNKNOWN
          16          16         181
  0.000000  0.000000  0.000000
  2.794539  0.000000  0.000000
  0.000000  2.794539  0.000000
  0.000000  0.000000 31.261606
  0.159736E-01  0.166084E-01  0.184068E-01  0.211150E-01  0.244106E-01  0.278549E-01
  0.308085E-01  0.325388E-01  0.325388E-01  0.308085E-01  0.278549E-01  0.244106E-01
  0.211150E-01  0.184068E-01  0.166084E-01  0.159736E-01  0.166084E-01  0.172155E-01
  0.189745E-01  0.217063E-01  0.251013E-01  0.286610E-01  0.316877E-01  0.334437E-01
  0.334437E-01  0.316877E-01  0.286610E-01  0.251013E-01  0.217063E-01  0.189745E-01
  0.172155E-01  0.166084E-01  0.184068E-01  0.189745E-01  0.207044E-01  0.235360E-01
  0.270879E-01  0.306522E-01  0.334706E-01  0.350049E-01  0.350049E-01  0.334706E-01
  0.306522E-01  0.270879E-01  0.235360E-01  0.207044E-01  0.189745E-01  0.184068E-01
  0.211150E-01  0.217063E-01  0.235360E-01  0.264521E-01  0.296765E-01  0.321436E-01
  0.333815E-01  0.337479E-01  0.337479E-01  0.333815E-01  0.321436E-01  0.296765E-01
  0.264521E-01  0.235360E-01  0.217063E-01  0.211150E-01  0.244106E-01  0.251013E-01
  0.270879E-01  0.296765E-01  0.312529E-01  0.305149E-01  0.281216E-01  0.261585E-01
  0.261585E-01  0.281216E-01  0.305149E-01  0.312529E-01  0.296765E-01  0.270879E-01
  0.251013E-01  0.244106E-01  0.278549E-01  0.286610E-01  0.306522E-01  0.321436E-01
  0.305149E-01  0.249261E-01  0.181930E-01  0.140352E-01  0.140352E-01  0.181930E-01
  0.249261E-01  0.305149E-01  0.321436E-01  0.306522E-01  0.286610E-01  0.278549E-01
  0.308085E-01  0.316877E-01  0.334706E-01  0.333815E-01  0.281216E-01  0.181930E-01
  0.893666E-02  0.441144E-02  0.441144E-02  0.893666E-02  0.181930E-01  0.281216E-01
  0.333815E-01  0.334706E-01  0.316877E-01  0.308085E-01  0.325388E-01  0.334437E-01
  0.350049E-01  0.337479E-01  0.261585E-01  0.140352E-01  0.441144E-02  0.773301E-03
  0.773301E-03  0.441144E-02  0.140352E-01  0.261585E-01  0.337479E-01  0.350049E-01
  0.334437E-01  0.325388E-01  0.325388E-01  0.334437E-01  0.350049E-01  0.337479E-01
  0.261585E-01  0.140352E-01  0.441144E-02  0.773300E-03  0.773301E-03  0.441144E-02
  0.140352E-01  0.261585E-01  0.337479E-01  0.350049E-01  0.334437E-01  0.325388E-01
  0.308085E-01  0.316877E-01  0.334706E-01  0.333815E-01  0.281216E-01  0.181930E-01
  0.893665E-02  0.441144E-02  0.441144E-02  0.893666E-02  0.181930E-01  0.281216E-01
  0.333815E-01  0.334706E-01  0.316877E-01  0.308085E-01  0.278549E-01  0.286610E-01
  0.306522E-01  0.321436E-01  0.305149E-01  0.249261E-01  0.181930E-01  0.140352E-01
  0.140352E-01  0.181930E-01  0.249261E-01  0.305149E-01  0.321436E-01  0.306522E-01
  0.286610E-01  0.278549E-01  0.244106E-01  0.251013E-01  0.270879E-01  0.296765E-01
  0.312529E-01  0.305149E-01  0.281216E-01  0.261585E-01  0.261585E-01  0.281216E-01
  0.305149E-01  0.312529E-01  0.296765E-01  0.270879E-01  0.251013E-01  0.244106E-01
  0.211150E-01  0.217063E-01  0.235360E-01  0.264521E-01  0.296765E-01  0.321436E-01
  0.333815E-01  0.337479E-01  0.337479E-01  0.333815E-01  0.321436E-01  0.296765E-01
  0.264521E-01  0.235360E-01  0.217063E-01  0.211150E-01  0.184068E-01  0.189745E-01
  0.207044E-01  0.235360E-01  0.270879E-01  0.306522E-01  0.334706E-01  0.350049E-01
  0.350049E-01  0.334706E-01  0.306522E-01  0.270879E-01  0.235360E-01  0.207044E-01
  0.189745E-01  0.184068E-01  0.166084E-01  0.172155E-01  0.189745E-01  0.217063E-01
  0.251013E-01  0.286610E-01  0.316877E-01  0.334437E-01  0.334437E-01  0.316877E-01
  0.286610E-01  0.251013E-01  0.217063E-01  0.189745E-01  0.172155E-01  0.166084E-01
  0.159736E-01  0.166084E-01  0.184068E-01  0.211150E-01  0.244106E-01  0.278549E-01
  0.308085E-01  0.325388E-01  0.325388E-01  0.308085E-01  0.278549E-01  0.244106E-01
  0.211150E-01  0.184068E-01  0.166084E-01  0.159736E-01  0.173656E-01  0.179700E-01
  0.196640E-01  0.221761E-01  0.251949E-01  0.283225E-01  0.309843E-01  0.325335E-01
  0.325335E-01  0.309843E-01  0.283225E-01  0.251949E-01  0.221761E-01  0.196640E-01
  0.179700E-01  0.173656E-01  0.179700E-01  0.185468E-01  0.201987E-01  0.227250E-01
  0.258290E-01  0.290622E-01  0.317984E-01  0.333794E-01  0.333794E-01  0.317984E-01
  0.290622E-01  0.258290E-01  0.227250E-01  0.201987E-01  0.185468E-01  0.179700E-01
  0.196640E-01  0.201987E-01  0.218116E-01  0.244221E-01  0.276771E-01  0.309452E-01
  0.335399E-01  0.349580E-01  0.349580E-01  0.335399E-01  0.309452E-01  0.276771E-01
  0.244221E-01  0.218116E-01  0.201987E-01  0.196640E-01  0.221761E-01  0.227250E-01
  0.244221E-01  0.271314E-01  0.301573E-01  0.325374E-01  0.338118E-01  0.342429E-01
  0.342429E-01  0.338118E-01  0.325374E-01  0.301573E-01  0.271314E-01  0.244221E-01
  0.227250E-01  0.221761E-01  0.251949E-01  0.258290E-01  0.276771E-01  0.301573E-01
  0.318277E-01  0.314543E-01  0.295210E-01  0.278527E-01  0.278527E-01  0.295210E-01
  0.314543E-01  0.318277E-01  0.301573E-01  0.276771E-01  0.258290E-01  0.251949E-01
  0.283225E-01  0.290622E-01  0.309452E-01  0.325374E-01  0.314543E-01  0.267226E-01
  0.206701E-01  0.167735E-01  0.167735E-01  0.206701E-01  0.267226E-01  0.314543E-01
  0.325374E-01  0.309452E-01  0.290622E-01  0.283225E-01  0.309843E-01  0.317984E-01
  0.335399E-01  0.338118E-01  0.295210E-01  0.206701E-01  0.117892E-01  0.703483E-02
  0.703483E-02  0.117892E-01  0.206701E-01  0.295210E-01  0.338118E-01  0.335399E-01
  0.317984E-01  0.309843E-01  0.325335E-01  0.333794E-01  0.349580E-01  0.342429E-01
  0.278527E-01  0.167735E-01  0.703482E-02  0.261094E-02  0.261094E-02  0.703483E-02
  0.167735E-01  0.278527E-01  0.342429E-01  0.349580E-01  0.333794E-01  0.325335E-01
  0.325335E-01  0.333794E-01  0.349580E-01  0.342429E-01  0.278527E-01  0.167735E-01
  0.703482E-02  0.261094E-02  0.261094E-02  0.703483E-02  0.167735E-01  0.278527E-01
  0.342429E-01  0.349580E-01  0.333794E-01  0.325335E-01  0.309843E-01  0.317984E-01
  0.335399E-01  0.338118E-01  0.295210E-01  0.206701E-01  0.117892E-01  0.703482E-02
  0.703482E-02  0.117892E-01  0.206701E-01  0.295210E-01  0.338118E-01  0.335399E-01
  0.317984E-01  0.309843E-01  0.283225E-01  0.290622E-01  0.309452E-01  0.325374E-01
  0.314543E-01  0.267226E-01  0.206701E-01  0.167735E-01  0.167735E-01  0.206701E-01
  0.267226E-01  0.314543E-01  0.325374E-01  0.309452E-01  0.290622E-01  0.283225E-01
  0.251949E-01  0.258290E-01  0.276771E-01  0.301573E-01  0.318277E-01  0.314543E-01
  0.295210E-01  0.278527E-01  0.278527E-01  0.295210E-01  0.314543E-01  0.318277E-01
  0.301573E-01  0.276771E-01  0.258290E-01  0.251949E-01  0.221761E-01  0.227250E-01
  0.244221E-01  0.271314E-01  0.301573E-01  0.325374E-01  0.338118E-01  0.342429E-01
  0.342429E-01  0.338118E-01  0.325374E-01  0.301573E-01  0.271314E-01  0.244221E-01
  0.227250E-01  0.221761E-01  0.196640E-01  0.201987E-01  0.218116E-01  0.244221E-01
  0.276771E-01  0.309452E-01  0.335399E-01  0.349580E-01  0.349580E-01  0.335399E-01
  0.309452E-01  0.276771E-01  0.244221E-01  0.218116E-01  0.201987E-01  0.196640E-01
  0.179700E-01  0.185468E-01  0.201987E-01  0.227250E-01  0.258290E-01  0.290622E-01
  0.317984E-01  0.333794E-01  0.333794E-01  0.317984E-01  0.290622E-01  0.258290E-01
  0.227250E-01  0.201987E-01  0.185468E-01  0.179700E-01  0.173656E-01  0.179700E-01
  0.196640E-01  0.221761E-01  0.251949E-01  0.283225E-01  0.309843E-01  0.325335E-01
  0.325335E-01  0.309843E-01  0.283225E-01  0.251949E-01  0.221761E-01  0.196640E-01
  0.179700E-01  0.173656E-01  0.190873E-01  0.196307E-01  0.211352E-01  0.233213E-01
  0.258848E-01  0.284663E-01  0.305951E-01  0.318010E-01  0.318010E-01  0.305951E-01
  0.284663E-01  0.258848E-01  0.233213E-01  0.211352E-01  0.196307E-01  0.190873E-01
  0.196307E-01  0.201494E-01  0.216122E-01  0.237972E-01  0.264178E-01  0.290838E-01
  0.312858E-01  0.325321E-01  0.325321E-01  0.312858E-01  0.290838E-01  0.264178E-01
  0.237971E-01  0.216122E-01  0.201494E-01  0.196307E-01  0.211352E-01  0.216122E-01
  0.230256E-01  0.252647E-01  0.280179E-01  0.307665E-01  0.329433E-01  0.341298E-01
  0.341298E-01  0.329433E-01  0.307665E-01  0.280179E-01  0.252647E-01  0.230256E-01
  0.216122E-01  0.211352E-01  0.233213E-01  0.237971E-01  0.252647E-01  0.276194E-01
  0.303147E-01  0.325635E-01  0.339149E-01  0.344627E-01  0.344627E-01  0.339149E-01
  0.325635E-01  0.303147E-01  0.276194E-01  0.252647E-01  0.237971E-01  0.233213E-01
  0.258848E-01  0.264178E-01  0.280179E-01  0.303147E-01  0.322053E-01  0.326005E-01
  0.316448E-01  0.306175E-01  0.306175E-01  0.316448E-01  0.326005E-01  0.322053E-01
  0.303147E-01  0.280179E-01  0.264178E-01  0.258848E-01  0.284663E-01  0.290838E-01
  0.307665E-01  0.325635E-01  0.326005E-01  0.297493E-01  0.253982E-01  0.223339E-01
  0.223339E-01  0.253982E-01  0.297493E-01  0.326005E-01  0.325635E-01  0.307665E-01
  0.290838E-01  0.284663E-01  0.305951E-01  0.312858E-01  0.329433E-01  0.339149E-01
  0.316448E-01  0.253982E-01  0.181169E-01  0.136434E-01  0.136434E-01  0.181169E-01
  0.253982E-01  0.316448E-01  0.339149E-01  0.329433E-01  0.312858E-01  0.305951E-01
  0.318010E-01  0.325321E-01  0.341298E-01  0.344627E-01  0.306175E-01  0.223339E-01
  0.136434E-01  0.873598E-02  0.873598E-02  0.136434E-01  0.223339E-01  0.306175E-01
  0.344627E-01  0.341298E-01  0.325321E-01  0.318010E-01  0.318010E-01  0.325321E-01
  0.341298E-01  0.344627E-01  0.306175E-01  0.223339E-01  0.136434E-01  0.873598E-02
  0.873598E-02  0.136434E-01  0.223339E-01  0.306175E-01  0.344627E-01  0.341298E-01
  0.325321E-01  0.318010E-01  0.305951E-01  0.312858E-01  0.329433E-01  0.339149E-01
  0.316448E-01  0.253982E-01  0.181169E-01  0.136434E-01  0.136434E-01  0.181169E-01
  0.253982E-01  0.316448E-01  0.339149E-01  0.329433E-01  0.312858E-01  0.305951E-01
  0.284663E-01  0.290838E-01  0.307665E-01  0.325635E-01  0.326005E-01  0.297493E-01
  0.253982E-01  0.223339E-01  0.223339E-01  0.253982E-01  0.297493E-01  0.326005E-01
  0.325635E-01  0.307665E-01  0.290838E-01  0.284663E-01  0.258848E-01  0.264178E-01
  0.280179E-01  0.303147E-01  0.322053E-01  0.326005E-01  0.316448E-01  0.306175E-01
  0.306175E-01  0.316448E-01  0.326005E-01  0.322053E-01  0.303147E-01  0.280179E-01
  0.264178E-01  0.258848E-01  0.233213E-01  0.237972E-01  0.252647E-01  0.276194E-01
  0.303147E-01  0.325635E-01  0.339149E-01  0.344627E-01  0.344627E-01  0.339149E-01
  0.325635E-01  0.303147E-01  0.276194E-01  0.252647E-01  0.237972E-01  0.233213E-01
  0.211352E-01  0.216122E-01  0.230256E-01  0.252647E-01  0.280179E-01  0.307665E-01
  0.329433E-01  0.341298E-01  0.341298E-01  0.329433E-01  0.307665E-01  0.280179E-01
  0.252647E-01  0.230256E-01  0.216122E-01  0.211352E-01  0.196307E-01  0.201494E-01
  0.216122E-01  0.237972E-01  0.264178E-01  0.290838E-01  0.312858E-01  0.325321E-01
  0.325321E-01  0.312858E-01  0.290838E-01  0.264178E-01  0.237971E-01  0.216122E-01
  0.201494E-01  0.196307E-01  0.190873E-01  0.196307E-01  0.211352E-01  0.233213E-01
  0.258848E-01  0.284663E-01  0.305951E-01  0.318010E-01  0.318010E-01  0.305951E-01
  0.284663E-01  0.258848E-01  0.233213E-01  0.211352E-01  0.196307E-01  0.190873E-01
  0.213209E-01  0.217665E-01  0.229875E-01  0.247271E-01  0.267045E-01  0.286039E-01
  0.300780E-01  0.308674E-01  0.308674E-01  0.300780E-01  0.286039E-01  0.267045E-01
  0.247271E-01  0.229875E-01  0.217665E-01  0.213209E-01  0.217665E-01  0.221947E-01
  0.233827E-01  0.251094E-01  0.271096E-01  0.290588E-01  0.305893E-01  0.314170E-01
  0.314170E-01  0.305893E-01  0.290588E-01  0.271096E-01  0.251094E-01  0.233827E-01
  0.221947E-01  0.217665E-01  0.229875E-01  0.233827E-01  0.245251E-01  0.262745E-01
  0.283649E-01  0.304053E-01  0.319865E-01  0.328311E-01  0.328311E-01  0.319865E-01
  0.304053E-01  0.283649E-01  0.262745E-01  0.245251E-01  0.233827E-01  0.229875E-01
  0.247271E-01  0.251094E-01  0.262745E-01  0.281334E-01  0.302947E-01  0.321833E-01
  0.334132E-01  0.339632E-01  0.339632E-01  0.334132E-01  0.321833E-01  0.302947E-01
  0.281334E-01  0.262745E-01  0.251094E-01  0.247271E-01  0.267045E-01  0.271096E-01
  0.283649E-01  0.302947E-01  0.321747E-01  0.331571E-01  0.331175E-01  0.327475E-01
  0.327475E-01  0.331175E-01  0.331571E-01  0.321747E-01  0.302947E-01  0.283649E-01
  0.271096E-01  0.267045E-01  0.286039E-01  0.290588E-01  0.304053E-01  0.321833E-01
  0.331571E-01  0.322710E-01  0.300308E-01  0.282100E-01  0.282100E-01  0.300308E-01
  0.322709E-01  0.331571E-01  0.321833E-01  0.304053E-01  0.290588E-01  0.286039E-01
  0.300780E-01  0.305893E-01  0.319865E-01  0.334132E-01  0.331175E-01  0.300308E-01
  0.255062E-01  0.223236E-01  0.223236E-01  0.255062E-01  0.300308E-01  0.331175E-01
  0.334132E-01  0.319865E-01  0.305893E-01  0.300780E-01  0.308674E-01  0.314170E-01
  0.328311E-01  0.339632E-01  0.327475E-01  0.282100E-01  0.223236E-01  0.184112E-01
  0.184112E-01  0.223236E-01  0.282100E-01  0.327475E-01  0.339632E-01  0.328311E-01
  0.314170E-01  0.308674E-01  0.308674E-01  0.314170E-01  0.328311E-01  0.339632E-01
  0.327475E-01  0.282100E-01  0.223236E-01  0.184112E-01  0.184112E-01  0.223236E-01
  0.282100E-01  0.327475E-01  0.339632E-01  0.328311E-01  0.314170E-01  0.308674E-01
  0.300780E-01  0.305893E-01  0.319865E-01  0.334132E-01  0.331175E-01  0.300308E-01
  0.255062E-01  0.223236E-01  0.223236E-01  0.255062E-01  0.300308E-01  0.331175E-01
  0.334132E-01  0.319865E-01  0.305893E-01  0.300780E-01  0.286039E-01  0.290588E-01
  0.304053E-01  0.321833E-01  0.331571E-01  0.322710E-01  0.300308E-01  0.282100E-01
  0.282100E-01  0.300308E-01  0.322710E-01  0.331571E-01  0.321833E-01  0.304053E-01
  0.290588E-01  0.286039E-01  0.267045E-01  0.271096E-01  0.283649E-01  0.302947E-01
  0.321747E-01  0.331571E-01  0.331175E-01  0.327475E-01  0.327475E-01  0.331175E-01
  0.331571E-01  0.321747E-01  0.302947E-01  0.283649E-01  0.271096E-01  0.267045E-01
  0.247271E-01  0.251094E-01  0.262745E-01  0.281334E-01  0.302947E-01  0.321833E-01
  0.334132E-01  0.339632E-01  0.339632E-01  0.334132E-01  0.321833E-01  0.302947E-01
  0.281334E-01  0.262745E-01  0.251094E-01  0.247271E-01  0.229875E-01  0.233827E-01
  0.245251E-01  0.262745E-01  0.283649E-01  0.304053E-01  0.319865E-01  0.328311E-01
  0.328311E-01  0.319865E-01  0.304053E-01  0.283649E-01  0.262745E-01  0.245251E-01
  0.233827E-01  0.229875E-01  0.217665E-01  0.221947E-01  0.233827E-01  0.251094E-01
  0.271096E-01  0.290588E-01  0.305893E-01  0.314170E-01  0.314170E-01  0.305893E-01
  0.290588E-01  0.271096E-01  0.251094E-01  0.233827E-01  0.221947E-01  0.217665E-01
  0.213209E-01  0.217665E-01  0.229875E-01  0.247271E-01  0.267045E-01  0.286039E-01
  0.300780E-01  0.308674E-01  0.308674E-01  0.300780E-01  0.286039E-01  0.267045E-01
  0.247271E-01  0.229875E-01  0.217665E-01  0.213209E-01  0.243085E-01  0.246192E-01
  0.254511E-01  0.265899E-01  0.278208E-01  0.289346E-01  0.297399E-01  0.301422E-01
  0.301422E-01  0.297399E-01  0.289346E-01  0.278208E-01  0.265899E-01  0.254511E-01
  0.246192E-01  0.243085E-01  0.246192E-01  0.249217E-01  0.257357E-01  0.268591E-01
  0.280869E-01  0.292151E-01  0.300484E-01  0.304745E-01  0.304745E-01  0.300484E-01
  0.292150E-01  0.280869E-01  0.268591E-01  0.257357E-01  0.249217E-01  0.246192E-01
  0.254511E-01  0.257357E-01  0.265229E-01  0.276523E-01  0.289241E-01  0.301117E-01
  0.310002E-01  0.314614E-01  0.314614E-01  0.310002E-01  0.301117E-01  0.289241E-01
  0.276523E-01  0.265229E-01  0.257357E-01  0.254511E-01  0.265899E-01  0.268591E-01
  0.276523E-01  0.288708E-01  0.302619E-01  0.314859E-01  0.323045E-01  0.326823E-01
  0.326823E-01  0.323045E-01  0.314859E-01  0.302619E-01  0.288708E-01  0.276523E-01
  0.268591E-01  0.265899E-01  0.278208E-01  0.280869E-01  0.289241E-01  0.302619E-01
  0.316912E-01  0.326702E-01  0.330090E-01  0.329974E-01  0.329974E-01  0.330090E-01
  0.326702E-01  0.316912E-01  0.302619E-01  0.289241E-01  0.280869E-01  0.278208E-01
  0.289346E-01  0.292150E-01  0.301117E-01  0.314859E-01  0.326702E-01  0.329119E-01
  0.322304E-01  0.314815E-01  0.314815E-01  0.322304E-01  0.329119E-01  0.326702E-01
  0.314859E-01  0.301117E-01  0.292150E-01  0.289346E-01  0.297399E-01  0.300484E-01
  0.310002E-01  0.323045E-01  0.330090E-01  0.322304E-01  0.303218E-01  0.287509E-01
  0.287509E-01  0.303218E-01  0.322304E-01  0.330090E-01  0.323045E-01  0.310002E-01
  0.300484E-01  0.297399E-01  0.301422E-01  0.304745E-01  0.314615E-01  0.326823E-01
  0.329974E-01  0.314815E-01  0.287509E-01  0.266579E-01  0.266579E-01  0.287509E-01
  0.314815E-01  0.329974E-01  0.326823E-01  0.314614E-01  0.304745E-01  0.301422E-01
  0.301422E-01  0.304745E-01  0.314615E-01  0.326823E-01  0.329974E-01  0.314815E-01
  0.287509E-01  0.266579E-01  0.266579E-01  0.287509E-01  0.314815E-01  0.329974E-01
  0.326823E-01  0.314614E-01  0.304745E-01  0.301422E-01  0.297399E-01  0.300484E-01
  0.310002E-01  0.323045E-01  0.330090E-01  0.322304E-01  0.303218E-01  0.287509E-01
  0.287509E-01  0.303218E-01  0.322304E-01  0.330090E-01  0.323045E-01  0.310002E-01
  0.300484E-01  0.297399E-01  0.289346E-01  0.292151E-01  0.301117E-01  0.314859E-01
  0.326702E-01  0.329119E-01  0.322304E-01  0.314815E-01  0.314815E-01  0.322304E-01
  0.329119E-01  0.326702E-01  0.314859E-01  0.301117E-01  0.292150E-01  0.289346E-01
  0.278208E-01  0.280869E-01  0.289241E-01  0.302619E-01  0.316912E-01  0.326702E-01
  0.330090E-01  0.329974E-01  0.329974E-01  0.330090E-01  0.326702E-01  0.316912E-01
  0.302619E-01  0.289241E-01  0.280869E-01  0.278208E-01  0.265899E-01  0.268591E-01
  0.276523E-01  0.288708E-01  0.302619E-01  0.314859E-01  0.323045E-01  0.326823E-01
  0.326823E-01  0.323045E-01  0.314859E-01  0.302619E-01  0.288708E-01  0.276523E-01
  0.268591E-01  0.265899E-01  0.254511E-01  0.257357E-01  0.265229E-01  0.276523E-01
  0.289241E-01  0.301117E-01  0.310002E-01  0.314615E-01  0.314615E-01  0.310002E-01
  0.301117E-01  0.289241E-01  0.276523E-01  0.265229E-01  0.257357E-01  0.254511E-01
  0.246192E-01  0.249217E-01  0.257357E-01  0.268591E-01  0.280869E-01  0.292151E-01
  0.300484E-01  0.304745E-01  0.304745E-01  0.300484E-01  0.292150E-01  0.280869E-01
  0.268591E-01  0.257357E-01  0.249217E-01  0.246192E-01  0.243085E-01  0.246192E-01
  0.254511E-01  0.265899E-01  0.278208E-01  0.289346E-01  0.297399E-01  0.301422E-01
  0.301422E-01  0.297399E-01  0.289346E-01  0.278208E-01  0.265899E-01  0.254511E-01
  0.246192E-01  0.243085E-01  0.277818E-01  0.279999E-01  0.285102E-01  0.290306E-01
  0.293932E-01  0.296061E-01  0.297330E-01  0.297988E-01  0.297988E-01  0.297330E-01
  0.296061E-01  0.293932E-01  0.290306E-01  0.285102E-01  0.279999E-01  0.277818E-01
  0.279999E-01  0.282070E-01  0.286893E-01  0.291768E-01  0.295155E-01  0.297220E-01
  0.298568E-01  0.299325E-01  0.299325E-01  0.298568E-01  0.297220E-01  0.295155E-01
  0.291768E-01  0.286893E-01  0.282070E-01  0.279999E-01  0.285102E-01  0.286893E-01
  0.291117E-01  0.295542E-01  0.298878E-01  0.301193E-01  0.302864E-01  0.303830E-01
  0.303830E-01  0.302864E-01  0.301193E-01  0.298878E-01  0.295542E-01  0.291117E-01
  0.286893E-01  0.285102E-01  0.290306E-01  0.291768E-01  0.295542E-01  0.300253E-01
  0.304603E-01  0.307854E-01  0.309834E-01  0.310714E-01  0.310714E-01  0.309834E-01
  0.307854E-01  0.304603E-01  0.300253E-01  0.295542E-01  0.291768E-01  0.290306E-01
  0.293932E-01  0.295155E-01  0.298878E-01  0.304603E-01  0.310530E-01  0.314445E-01
  0.315631E-01  0.315402E-01  0.315402E-01  0.315631E-01  0.314445E-01  0.310530E-01
  0.304603E-01  0.298878E-01  0.295155E-01  0.293932E-01  0.296061E-01  0.297220E-01
  0.301193E-01  0.307854E-01  0.314445E-01  0.317239E-01  0.315579E-01  0.312873E-01
  0.312873E-01  0.315579E-01  0.317239E-01  0.314445E-01  0.307854E-01  0.301193E-01
  0.297220E-01  0.296061E-01  0.297330E-01  0.298568E-01  0.302864E-01  0.309834E-01
  0.315631E-01  0.315579E-01  0.309798E-01  0.304053E-01  0.304053E-01  0.309798E-01
  0.315579E-01  0.315631E-01  0.309834E-01  0.302864E-01  0.298568E-01  0.297330E-01
  0.297988E-01  0.299325E-01  0.303831E-01  0.310714E-01  0.315402E-01  0.312873E-01
  0.304053E-01  0.296241E-01  0.296241E-01  0.304053E-01  0.312873E-01  0.315402E-01
  0.310714E-01  0.303830E-01  0.299325E-01  0.297988E-01  0.297988E-01  0.299325E-01
  0.303831E-01  0.310714E-01  0.315402E-01  0.312873E-01  0.304053E-01  0.296241E-01
  0.296241E-01  0.304053E-01  0.312873E-01  0.315402E-01  0.310714E-01  0.303830E-01
  0.299325E-01  0.297988E-01  0.297330E-01  0.298568E-01  0.302864E-01  0.309834E-01
  0.315631E-01  0.315579E-01  0.309798E-01  0.304053E-01  0.304053E-01  0.309798E-01
  0.315579E-01  0.315631E-01  0.309834E-01  0.302864E-01  0.298568E-01  0.297330E-01
  0.296061E-01  0.297220E-01  0.301193E-01  0.307854E-01  0.314445E-01  0.317239E-01
  0.315579E-01  0.312873E-01  0.312873E-01  0.315579E-01  0.317239E-01  0.314445E-01
  0.307854E-01  0.301193E-01  0.297220E-01  0.296061E-01  0.293932E-01  0.295155E-01
  0.298878E-01  0.304603E-01  0.310531E-01  0.314445E-01  0.315631E-01  0.315402E-01
  0.315402E-01  0.315631E-01  0.314445E-01  0.310530E-01  0.304603E-01  0.298878E-01
  0.295155E-01  0.293932E-01  0.290306E-01  0.291768E-01  0.295542E-01  0.300253E-01
  0.304603E-01  0.307854E-01  0.309834E-01  0.310714E-01  0.310714E-01  0.309834E-01
  0.307854E-01  0.304603E-01  0.300253E-01  0.295542E-01  0.291768E-01  0.290306E-01
  0.285102E-01  0.286893E-01  0.291117E-01  0.295542E-01  0.298878E-01  0.301193E-01
  0.302864E-01  0.303831E-01  0.303830E-01  0.302864E-01  0.301193E-01  0.298878E-01
  0.295542E-01  0.291117E-01  0.286893E-01  0.285102E-01  0.279999E-01  0.282070E-01
  0.286893E-01  0.291768E-01  0.295155E-01  0.297220E-01  0.298568E-01  0.299325E-01
  0.299325E-01  0.298568E-01  0.297220E-01  0.295155E-01  0.291768E-01  0.286893E-01
  0.282070E-01  0.279999E-01  0.277818E-01  0.279999E-01  0.285102E-01  0.290306E-01
  0.293932E-01  0.296061E-01  0.297330E-01  0.297988E-01  0.297988E-01  0.297330E-01
  0.296061E-01  0.293932E-01  0.290306E-01  0.285102E-01  0.279999E-01  0.277818E-01
  0.298824E-01  0.302779E-01  0.310955E-01  0.315892E-01  0.313688E-01  0.307090E-01
  0.301209E-01  0.298408E-01  0.298408E-01  0.301209E-01  0.307090E-01  0.313688E-01
  0.315892E-01  0.310955E-01  0.302779E-01  0.298824E-01  0.302779E-01  0.306211E-01
  0.313091E-01  0.316634E-01  0.313546E-01  0.306681E-01  0.300865E-01  0.298162E-01
  0.298162E-01  0.300865E-01  0.306681E-01  0.313546E-01  0.316634E-01  0.313091E-01
  0.306211E-01  0.302779E-01  0.310955E-01  0.313091E-01  0.316891E-01  0.317395E-01
  0.312688E-01  0.305592E-01  0.300072E-01  0.297584E-01  0.297584E-01  0.300072E-01
  0.305592E-01  0.312688E-01  0.317395E-01  0.316891E-01  0.313091E-01  0.310955E-01
  0.315892E-01  0.316634E-01  0.317395E-01  0.315524E-01  0.310339E-01  0.303946E-01
  0.299027E-01  0.296670E-01  0.296670E-01  0.299027E-01  0.303946E-01  0.310339E-01
  0.315524E-01  0.317395E-01  0.316634E-01  0.315892E-01  0.313688E-01  0.313546E-01
  0.312688E-01  0.310339E-01  0.306322E-01  0.301460E-01  0.297143E-01  0.294635E-01
  0.294635E-01  0.297143E-01  0.301460E-01  0.306322E-01  0.310339E-01  0.312688E-01
  0.313546E-01  0.313688E-01  0.307090E-01  0.306681E-01  0.305592E-01  0.303946E-01
  0.301460E-01  0.297796E-01  0.293564E-01  0.290583E-01  0.290583E-01  0.293564E-01
  0.297796E-01  0.301460E-01  0.303946E-01  0.305592E-01  0.306681E-01  0.307090E-01
  0.301209E-01  0.300865E-01  0.300072E-01  0.299027E-01  0.297143E-01  0.293564E-01
  0.288792E-01  0.285215E-01  0.285215E-01  0.288792E-01  0.293564E-01  0.297143E-01
  0.299027E-01  0.300072E-01  0.300865E-01  0.301209E-01  0.298408E-01  0.298162E-01
  0.297584E-01  0.296670E-01  0.294635E-01  0.290583E-01  0.285215E-01  0.281232E-01
  0.281232E-01  0.285215E-01  0.290583E-01  0.294635E-01  0.296670E-01  0.297584E-01
  0.298162E-01  0.298408E-01  0.298408E-01  0.298162E-01  0.297584E-01  0.296670E-01
  0.294635E-01  0.290583E-01  0.285215E-01  0.281232E-01  0.281232E-01  0.285215E-01
  0.290583E-01  0.294635E-01  0.296670E-01  0.297584E-01  0.298162E-01  0.298408E-01
  0.301209E-01  0.300865E-01  0.300072E-01  0.299027E-01  0.297143E-01  0.293564E-01
  0.288792E-01  0.285215E-01  0.285215E-01  0.288792E-01  0.293564E-01  0.297143E-01
  0.299027E-01  0.300072E-01  0.300865E-01  0.301209E-01  0.307090E-01  0.306681E-01
  0.305592E-01  0.303946E-01  0.301460E-01  0.297796E-01  0.293564E-01  0.290583E-01
  0.290583E-01  0.293564E-01  0.297796E-01  0.301460E-01  0.303946E-01  0.305592E-01
  0.306681E-01  0.307090E-01  0.313688E-01  0.313546E-01  0.312688E-01  0.310339E-01
  0.306322E-01  0.301460E-01  0.297143E-01  0.294635E-01  0.294635E-01  0.297143E-01
  0.301460E-01  0.306322E-01  0.310339E-01  0.312688E-01  0.313546E-01  0.313688E-01
  0.315892E-01  0.316634E-01  0.317395E-01  0.315524E-01  0.310339E-01  0.303946E-01
  0.299027E-01  0.296670E-01  0.296670E-01  0.299027E-01  0.303946E-01  0.310339E-01
  0.315524E-01  0.317395E-01  0.316634E-01  0.315892E-01  0.310955E-01  0.313091E-01
  0.316891E-01  0.317395E-01  0.312688E-01  0.305592E-01  0.300072E-01  0.297584E-01
  0.297584E-01  0.300072E-01  0.305592E-01  0.312688E-01  0.317395E-01  0.316891E-01
  0.313091E-01  0.310955E-01  0.302779E-01  0.306211E-01  0.313091E-01  0.316634E-01
  0.313546E-01  0.306681E-01  0.300865E-01  0.298162E-01  0.298162E-01  0.300865E-01
  0.306681E-01  0.313546E-01  0.316634E-01  0.313091E-01  0.306211E-01  0.302779E-01
  0.298824E-01  0.302779E-01  0.310955E-01  0.315892E-01  0.313688E-01  0.307090E-01
  0.301209E-01  0.298408E-01  0.298408E-01  0.301209E-01  0.307090E-01  0.313688E-01
  0.315892E-01  0.310955E-01  0.302779E-01  0.298824E-01  0.274113E-01  0.284770E-01
  0.308872E-01  0.328646E-01  0.331651E-01  0.321145E-01  0.308831E-01  0.302111E-01
  0.302111E-01  0.308831E-01  0.321145E-01  0.331651E-01  0.328646E-01  0.308872E-01
  0.284770E-01  0.274113E-01  0.284770E-01  0.294064E-01  0.314654E-01  0.330416E-01
  0.330670E-01  0.319174E-01  0.306908E-01  0.300415E-01  0.300415E-01  0.306908E-01
  0.319174E-01  0.330670E-01  0.330416E-01  0.314654E-01  0.294064E-01  0.284770E-01
  0.308872E-01  0.314654E-01  0.326437E-01  0.332578E-01  0.326647E-01  0.313198E-01
  0.301198E-01  0.295224E-01  0.295224E-01  0.301198E-01  0.313198E-01  0.326647E-01
  0.332578E-01  0.326437E-01  0.314654E-01  0.308872E-01  0.328646E-01  0.330416E-01
  0.332578E-01  0.329098E-01  0.317934E-01  0.303575E-01  0.292281E-01  0.286801E-01
  0.286801E-01  0.292281E-01  0.303575E-01  0.317934E-01  0.329098E-01  0.332578E-01
  0.330416E-01  0.328646E-01  0.331651E-01  0.330670E-01  0.326647E-01  0.317934E-01
  0.305163E-01  0.291776E-01  0.281563E-01  0.276368E-01  0.276368E-01  0.281562E-01
  0.291776E-01  0.305163E-01  0.317934E-01  0.326647E-01  0.330670E-01  0.331651E-01
  0.321145E-01  0.319174E-01  0.313198E-01  0.303575E-01  0.291776E-01  0.280093E-01
  0.270801E-01  0.265658E-01  0.265658E-01  0.270801E-01  0.280093E-01  0.291776E-01
  0.303575E-01  0.313198E-01  0.319174E-01  0.321145E-01  0.308831E-01  0.306908E-01
  0.301198E-01  0.292281E-01  0.281563E-01  0.270801E-01  0.261809E-01  0.256548E-01
  0.256548E-01  0.261809E-01  0.270801E-01  0.281562E-01  0.292281E-01  0.301198E-01
  0.306908E-01  0.308831E-01  0.302111E-01  0.300415E-01  0.295224E-01  0.286801E-01
  0.276368E-01  0.265658E-01  0.256548E-01  0.251148E-01  0.251148E-01  0.256548E-01
  0.265658E-01  0.276368E-01  0.286801E-01  0.295224E-01  0.300415E-01  0.302111E-01
  0.302111E-01  0.300415E-01  0.295224E-01  0.286801E-01  0.276368E-01  0.265658E-01
  0.256548E-01  0.251148E-01  0.251148E-01  0.256548E-01  0.265658E-01  0.276368E-01
  0.286801E-01  0.295224E-01  0.300415E-01  0.302111E-01  0.308831E-01  0.306908E-01
  0.301198E-01  0.292282E-01  0.281563E-01  0.270801E-01  0.261809E-01  0.256548E-01
  0.256548E-01  0.261809E-01  0.270801E-01  0.281562E-01  0.292281E-01  0.301198E-01
  0.306908E-01  0.308831E-01  0.321145E-01  0.319174E-01  0.313198E-01  0.303575E-01
  0.291776E-01  0.280093E-01  0.270801E-01  0.265658E-01  0.265658E-01  0.270801E-01
  0.280093E-01  0.291776E-01  0.303575E-01  0.313198E-01  0.319174E-01  0.321145E-01
  0.331651E-01  0.330670E-01  0.326647E-01  0.317934E-01  0.305163E-01  0.291776E-01
  0.281563E-01  0.276368E-01  0.276368E-01  0.281563E-01  0.291776E-01  0.305163E-01
  0.317934E-01  0.326647E-01  0.330670E-01  0.331651E-01  0.328646E-01  0.330416E-01
  0.332578E-01  0.329098E-01  0.317934E-01  0.303575E-01  0.292281E-01  0.286801E-01
  0.286801E-01  0.292281E-01  0.303575E-01  0.317934E-01  0.329098E-01  0.332578E-01
  0.330416E-01  0.328646E-01  0.308872E-01  0.314654E-01  0.326437E-01  0.332578E-01
  0.326647E-01  0.313198E-01  0.301198E-01  0.295224E-01  0.295224E-01  0.301198E-01
  0.313198E-01  0.326647E-01  0.332578E-01  0.326437E-01  0.314654E-01  0.308872E-01
  0.284770E-01  0.294064E-01  0.314654E-01  0.330416E-01  0.330670E-01  0.319174E-01
  0.306908E-01  0.300415E-01  0.300415E-01  0.306908E-01  0.319174E-01  0.330670E-01
  0.330416E-01  0.314654E-01  0.294064E-01  0.284770E-01  0.274113E-01  0.284770E-01
  0.308872E-01  0.328646E-01  0.331651E-01  0.321145E-01  0.308831E-01  0.302111E-01
  0.302111E-01  0.308831E-01  0.321145E-01  0.331651E-01  0.328646E-01  0.308872E-01