 CRYSTAL
 PRIMVEC
    2.794539329    0.000000000    0.000000000
    0.000000000    2.794539329    0.000000000
    0.000000000    0.000000000   27.309529403
 PRIMCOORD
           9           1
Al        0.000000102    0.000000164   -0.023276479
Al        1.397269217    1.397268889    1.977285446
Al       -0.000000160    0.000000167    3.971171304
Al        1.397269464    1.397269349    5.947708086
Al        0.000000000    0.000000000    7.904150492
Al        1.397269764    1.397269941    9.860592729
Al        0.000000089    0.000000045   11.837130340
Al        1.397269870    1.397270366   13.831018564
Al        0.000000385   -0.000000245   15.831579888
BEGIN_BLOCK_DATAGRID_3D
3D_PWSCF
DATAGRID_3D_UNKNOWN
          16          16         151
  0.000000  0.000000  0.000000
  2.794539  0.000000  0.000000
  0.000000  2.794539  0.000000
  0.000000  0.000000 27.309529
  0.157831E-03  0.149493E-02  0.789188E-02  0.198033E-01  0.307340E-01  0.352228E-01
  0.346287E-01  0.331045E-01  0.331045E-01  0.346287E-01  0.352228E-01  0.307340E-01
  0.198033E-01  0.789190E-02  0.149494E-02  0.157831E-03  0.149493E-02  0.328645E-02
  0.101796E-01  0.215155E-01  0.311576E-01  0.346697E-01  0.337335E-01  0.321888E-01
  0.321888E-01  0.337335E-01  0.346697E-01  0.311576E-01  0.215155E-01  0.101797E-01
  0.328645E-02  0.149493E-02  0.789188E-02  0.101796E-01  0.169575E-01  0.257928E-01
  0.318471E-01  0.329601E-01  0.312684E-01  0.297171E-01  0.297171E-01  0.312684E-01
  0.329601E-01  0.318471E-01  0.257928E-01  0.169575E-01  0.101796E-01  0.789188E-02
  0.198033E-01  0.215155E-01  0.257928E-01  0.300314E-01  0.315310E-01  0.301262E-01
  0.278190E-01  0.263608E-01  0.263608E-01  0.278190E-01  0.301262E-01  0.315310E-01
  0.300314E-01  0.257928E-01  0.215155E-01  0.198033E-01  0.307340E-01  0.311576E-01
  0.318471E-01  0.315310E-01  0.295376E-01  0.266212E-01  0.241409E-01  0.228549E-01
  0.228549E-01  0.241409E-01  0.266212E-01  0.295376E-01  0.315310E-01  0.318471E-01
  0.311576E-01  0.307340E-01  0.352228E-01  0.346697E-01  0.329601E-01  0.301262E-01
  0.266212E-01  0.233022E-01  0.209249E-01  0.197603E-01  0.197603E-01  0.209249E-01
  0.233022E-01  0.266212E-01  0.301261E-01  0.329601E-01  0.346697E-01  0.352228E-01
  0.346287E-01  0.337335E-01  0.312684E-01  0.278190E-01  0.241409E-01  0.209249E-01
  0.186283E-01  0.174546E-01  0.174546E-01  0.186283E-01  0.209249E-01  0.241409E-01
  0.278190E-01  0.312684E-01  0.337335E-01  0.346287E-01  0.331045E-01  0.321888E-01
  0.297171E-01  0.263608E-01  0.228549E-01  0.197603E-01  0.174546E-01  0.162151E-01
  0.162151E-01  0.174546E-01  0.197603E-01  0.228549E-01  0.263608E-01  0.297171E-01
  0.321888E-01  0.331045E-01  0.331045E-01  0.321888E-01  0.297171E-01  0.263608E-01
  0.228549E-01  0.197603E-01  0.174546E-01  0.162151E-01  0.162151E-01  0.174546E-01
  0.197603E-01  0.228549E-01  0.263608E-01  0.297171E-01  0.321888E-01  0.331045E-01
  0.346287E-01  0.337335E-01  0.312684E-01  0.278190E-01  0.241409E-01  0.209249E-01
  0.186283E-01  0.174546E-01  0.174546E-01  0.186283E-01  0.209249E-01  0.241408E-01
  0.278190E-01  0.312684E-01  0.337335E-01  0.346287E-01  0.352228E-01  0.346697E-01
  0.329601E-01  0.301261E-01  0.266212E-01  0.233022E-01  0.209249E-01  0.197603E-01
  0.197603E-01  0.209249E-01  0.233022E-01  0.266212E-01  0.301261E-01  0.329601E-01
  0.346697E-01  0.352228E-01  0.307340E-01  0.311576E-01  0.318471E-01  0.315310E-01
  0.295376E-01  0.266212E-01  0.241409E-01  0.228549E-01  0.228549E-01  0.241408E-01
  0.266212E-01  0.295376E-01  0.315310E-01  0.318471E-01  0.311576E-01  0.307340E-01
  0.198033E-01  0.215155E-01  0.257928E-01  0.300314E-01  0.315310E-01  0.301261E-01
  0.278190E-01  0.263608E-01  0.263608E-01  0.278190E-01  0.301261E-01  0.315310E-01
  0.300314E-01  0.257928E-01  0.215155E-01  0.198033E-01  0.789190E-02  0.101797E-01
  0.169575E-01  0.257928E-01  0.318471E-01  0.329601E-01  0.312684E-01  0.297171E-01
  0.297171E-01  0.312684E-01  0.329601E-01  0.318471E-01  0.257928E-01  0.169576E-01
  0.101797E-01  0.789190E-02  0.149494E-02  0.328645E-02  0.101797E-01  0.215155E-01
  0.311576E-01  0.346697E-01  0.337335E-01  0.321888E-01  0.321888E-01  0.337335E-01
  0.346697E-01  0.311576E-01  0.215155E-01  0.101797E-01  0.328646E-02  0.149494E-02
  0.157831E-03  0.149493E-02  0.789188E-02  0.198033E-01  0.307340E-01  0.352228E-01
  0.346287E-01  0.331045E-01  0.331045E-01  0.346287E-01  0.352228E-01  0.307340E-01
  0.198033E-01  0.789190E-02  0.149494E-02  0.157831E-03  0.150232E-02  0.340818E-02
  0.105411E-01  0.220786E-01  0.318546E-01  0.354915E-01  0.346824E-01  0.332219E-01
  0.332219E-01  0.346824E-01  0.354915E-01  0.318546E-01  0.220786E-01  0.105411E-01
  0.340818E-02  0.150232E-02  0.340818E-02  0.558208E-02  0.128623E-01  0.236480E-01
  0.321873E-01  0.349598E-01  0.338680E-01  0.323998E-01  0.323998E-01  0.338680E-01
  0.349598E-01  0.321873E-01  0.236480E-01  0.128623E-01  0.558208E-02  0.340818E-02
  0.105411E-01  0.128623E-01  0.194140E-01  0.274847E-01  0.326683E-01  0.333348E-01
  0.316223E-01  0.301705E-01  0.301705E-01  0.316223E-01  0.333348E-01  0.326683E-01
  0.274847E-01  0.194140E-01  0.128623E-01  0.105411E-01  0.220786E-01  0.236480E-01
  0.274847E-01  0.311226E-01  0.321874E-01  0.306796E-01  0.284747E-01  0.271231E-01
  0.271231E-01  0.284747E-01  0.306796E-01  0.321874E-01  0.311226E-01  0.274847E-01
  0.236480E-01  0.220786E-01  0.318546E-01  0.321873E-01  0.326683E-01  0.321874E-01
  0.301994E-01  0.274282E-01  0.251094E-01  0.239162E-01  0.239162E-01  0.251094E-01
  0.274282E-01  0.301994E-01  0.321874E-01  0.326683E-01  0.321873E-01  0.318546E-01
  0.354915E-01  0.349598E-01  0.333348E-01  0.306796E-01  0.274282E-01  0.243566E-01
  0.221469E-01  0.210562E-01  0.210562E-01  0.221469E-01  0.243566E-01  0.274282E-01
  0.306796E-01  0.333348E-01  0.349598E-01  0.354915E-01  0.346824E-01  0.338680E-01
  0.316223E-01  0.284747E-01  0.251094E-01  0.221469E-01  0.200042E-01  0.188934E-01
  0.188934E-01  0.200042E-01  0.221469E-01  0.251094E-01  0.284747E-01  0.316223E-01
  0.338680E-01  0.346824E-01  0.332219E-01  0.323998E-01  0.301705E-01  0.271231E-01
  0.239162E-01  0.210562E-01  0.188934E-01  0.177136E-01  0.177136E-01  0.188934E-01
  0.210562E-01  0.239162E-01  0.271231E-01  0.301704E-01  0.323998E-01  0.332219E-01
  0.332219E-01  0.323998E-01  0.301704E-01  0.271231E-01  0.239162E-01  0.210562E-01
  0.188934E-01  0.177136E-01  0.177136E-01  0.188934E-01  0.210562E-01  0.239162E-01
  0.271231E-01  0.301704E-01  0.323997E-01  0.332219E-01  0.346824E-01  0.338680E-01
  0.316223E-01  0.284747E-01  0.251094E-01  0.221469E-01  0.200042E-01  0.188934E-01
  0.188934E-01  0.200042E-01  0.221469E-01  0.251094E-01  0.284746E-01  0.316223E-01
  0.338680E-01  0.346824E-01  0.354915E-01  0.349598E-01  0.333348E-01  0.306796E-01
  0.274281E-01  0.243566E-01  0.221469E-01  0.210562E-01  0.210562E-01  0.221469E-01
  0.243566E-01  0.274281E-01  0.306796E-01  0.333348E-01  0.349598E-01  0.354915E-01
  0.318546E-01  0.321873E-01  0.326683E-01  0.321874E-01  0.301994E-01  0.274281E-01
  0.251094E-01  0.239162E-01  0.239162E-01  0.251094E-01  0.274281E-01  0.301994E-01
  0.321874E-01  0.326683E-01  0.321873E-01  0.318546E-01  0.220786E-01  0.236480E-01
  0.274847E-01  0.311226E-01  0.321874E-01  0.306796E-01  0.284747E-01  0.271231E-01
  0.271230E-01  0.284746E-01  0.306796E-01  0.321874E-01  0.311226E-01  0.274847E-01
  0.236480E-01  0.220786E-01  0.105411E-01  0.128623E-01  0.194140E-01  0.274847E-01
  0.326683E-01  0.333348E-01  0.316223E-01  0.301704E-01  0.301704E-01  0.316223E-01
  0.333348E-01  0.326683E-01  0.274847E-01  0.194140E-01  0.128623E-01  0.105411E-01
  0.340819E-02  0.558208E-02  0.128623E-01  0.236480E-01  0.321873E-01  0.349598E-01
  0.338680E-01  0.323998E-01  0.323997E-01  0.338680E-01  0.349598E-01  0.321873E-01
  0.236480E-01  0.128623E-01  0.558209E-02  0.340819E-02  0.150232E-02  0.340818E-02
  0.105411E-01  0.220786E-01  0.318546E-01  0.354915E-01  0.346824E-01  0.332219E-01
  0.332219E-01  0.346824E-01  0.354915E-01  0.318546E-01  0.220786E-01  0.105411E-01
  0.340818E-02  0.150232E-02  0.742667E-02  0.990858E-02  0.171920E-01  0.266786E-01
  0.333873E-01  0.350683E-01  0.337963E-01  0.324701E-01  0.324701E-01  0.337963E-01
  0.350683E-01  0.333873E-01  0.266786E-01  0.171920E-01  0.990859E-02  0.742667E-02
  0.990858E-02  0.123581E-01  0.192657E-01  0.278272E-01  0.335090E-01  0.345838E-01
  0.331499E-01  0.318394E-01  0.318394E-01  0.331499E-01  0.345837E-01  0.335090E-01
  0.278272E-01  0.192657E-01  0.123581E-01  0.990858E-02  0.171920E-01  0.192657E-01
  0.246345E-01  0.304660E-01  0.334954E-01  0.331255E-01  0.313469E-01  0.300941E-01
  0.300941E-01  0.313469E-01  0.331255E-01  0.334954E-01  0.304660E-01  0.246345E-01
  0.192657E-01  0.171920E-01  0.266786E-01  0.278272E-01  0.304660E-01  0.325868E-01
  0.325872E-01  0.307966E-01  0.287766E-01  0.276332E-01  0.276332E-01  0.287766E-01
  0.307966E-01  0.325872E-01  0.325868E-01  0.304660E-01  0.278272E-01  0.266786E-01
  0.333873E-01  0.335090E-01  0.334954E-01  0.325872E-01  0.305276E-01  0.279976E-01
  0.259791E-01  0.249616E-01  0.249616E-01  0.259791E-01  0.279976E-01  0.305276E-01
  0.325872E-01  0.334954E-01  0.335090E-01  0.333873E-01  0.350683E-01  0.345838E-01
  0.331255E-01  0.307966E-01  0.279976E-01  0.253703E-01  0.234662E-01  0.225123E-01
  0.225123E-01  0.234662E-01  0.253703E-01  0.279975E-01  0.307966E-01  0.331255E-01
  0.345837E-01  0.350683E-01  0.337963E-01  0.331499E-01  0.313469E-01  0.287766E-01
  0.259791E-01  0.234662E-01  0.216030E-01  0.206140E-01  0.206140E-01  0.216030E-01
  0.234662E-01  0.259791E-01  0.287766E-01  0.313469E-01  0.331499E-01  0.337963E-01
  0.324701E-01  0.318394E-01  0.300941E-01  0.276332E-01  0.249616E-01  0.225123E-01
  0.206140E-01  0.195589E-01  0.195589E-01  0.206140E-01  0.225123E-01  0.249616E-01
  0.276332E-01  0.300941E-01  0.318394E-01  0.324701E-01  0.324701E-01  0.318394E-01
  0.300941E-01  0.276332E-01  0.249616E-01  0.225123E-01  0.206140E-01  0.195589E-01
  0.195589E-01  0.206140E-01  0.225123E-01  0.249616E-01  0.276332E-01  0.300941E-01
  0.318394E-01  0.324701E-01  0.337963E-01  0.331499E-01  0.313469E-01  0.287766E-01
  0.259791E-01  0.234662E-01  0.216030E-01  0.206140E-01  0.206140E-01  0.216030E-01
  0.234662E-01  0.259791E-01  0.287766E-01  0.313469E-01  0.331499E-01  0.337963E-01
  0.350682E-01  0.345837E-01  0.331255E-01  0.307966E-01  0.279975E-01  0.253703E-01
  0.234662E-01  0.225123E-01  0.225123E-01  0.234662E-01  0.253703E-01  0.279975E-01
  0.307966E-01  0.331255E-01  0.345837E-01  0.350682E-01  0.333873E-01  0.335090E-01
  0.334954E-01  0.325872E-01  0.305276E-01  0.279975E-01  0.259791E-01  0.249616E-01
  0.249616E-01  0.259791E-01  0.279975E-01  0.305276E-01  0.325872E-01  0.334954E-01
  0.335090E-01  0.333873E-01  0.266786E-01  0.278272E-01  0.304660E-01  0.325868E-01
  0.325872E-01  0.307966E-01  0.287766E-01  0.276332E-01  0.276332E-01  0.287766E-01
  0.307966E-01  0.325872E-01  0.325868E-01  0.304660E-01  0.278272E-01  0.266786E-01
  0.171920E-01  0.192657E-01  0.246345E-01  0.304660E-01  0.334954E-01  0.331255E-01
  0.313469E-01  0.300941E-01  0.300941E-01  0.313469E-01  0.331255E-01  0.334954E-01
  0.304660E-01  0.246345E-01  0.192657E-01  0.171920E-01  0.990859E-02  0.123581E-01
  0.192657E-01  0.278272E-01  0.335090E-01  0.345837E-01  0.331499E-01  0.318394E-01
  0.318394E-01  0.331499E-01  0.345837E-01  0.335090E-01  0.278272E-01  0.192657E-01
  0.123581E-01  0.990859E-02  0.742667E-02  0.990858E-02  0.171920E-01  0.266786E-01
  0.333873E-01  0.350683E-01  0.337963E-01  0.324701E-01  0.324701E-01  0.337963E-01
  0.350683E-01  0.333873E-01  0.266786E-01  0.171920E-01  0.990859E-02  0.742667E-02
  0.177667E-01  0.198765E-01  0.252576E-01  0.310276E-01  0.340885E-01  0.339526E-01
  0.324928E-01  0.314548E-01  0.314548E-01  0.324928E-01  0.339526E-01  0.340885E-01
  0.310276E-01  0.252576E-01  0.198765E-01  0.177667E-01  0.198765E-01  0.218086E-01
  0.266421E-01  0.316329E-01  0.340353E-01  0.335823E-01  0.320687E-01  0.310577E-01
  0.310577E-01  0.320687E-01  0.335823E-01  0.340352E-01  0.316329E-01  0.266421E-01
  0.218086E-01  0.198765E-01  0.252576E-01  0.266421E-01  0.299130E-01  0.328599E-01
  0.336488E-01  0.324689E-01  0.308515E-01  0.299102E-01  0.299102E-01  0.308515E-01
  0.324689E-01  0.336488E-01  0.328599E-01  0.299130E-01  0.266421E-01  0.252576E-01
  0.310276E-01  0.316329E-01  0.328599E-01  0.334160E-01  0.325248E-01  0.306983E-01
  0.290439E-01  0.281888E-01  0.281888E-01  0.290439E-01  0.306982E-01  0.325248E-01
  0.334160E-01  0.328599E-01  0.316329E-01  0.310276E-01  0.340885E-01  0.340353E-01
  0.336488E-01  0.325248E-01  0.306468E-01  0.285772E-01  0.269964E-01  0.262115E-01
  0.262115E-01  0.269964E-01  0.285772E-01  0.306467E-01  0.325248E-01  0.336488E-01
  0.340352E-01  0.340885E-01  0.339526E-01  0.335823E-01  0.324689E-01  0.306983E-01
  0.285772E-01  0.265722E-01  0.250870E-01  0.243216E-01  0.243216E-01  0.250870E-01
  0.265722E-01  0.285772E-01  0.306982E-01  0.324689E-01  0.335823E-01  0.339526E-01
  0.324928E-01  0.320687E-01  0.308515E-01  0.290439E-01  0.269964E-01  0.250870E-01
  0.236182E-01  0.228142E-01  0.228142E-01  0.236182E-01  0.250870E-01  0.269964E-01
  0.290439E-01  0.308515E-01  0.320687E-01  0.324928E-01  0.314548E-01  0.310577E-01
  0.299102E-01  0.281888E-01  0.262115E-01  0.243216E-01  0.228142E-01  0.219609E-01
  0.219609E-01  0.228142E-01  0.243216E-01  0.262115E-01  0.281888E-01  0.299101E-01
  0.310577E-01  0.314548E-01  0.314548E-01  0.310577E-01  0.299102E-01  0.281888E-01
  0.262115E-01  0.243216E-01  0.228142E-01  0.219609E-01  0.219609E-01  0.228142E-01
  0.243216E-01  0.262115E-01  0.281888E-01  0.299101E-01  0.310577E-01  0.314548E-01
  0.324928E-01  0.320687E-01  0.308515E-01  0.290439E-01  0.269964E-01  0.250870E-01
  0.236182E-01  0.228142E-01  0.228142E-01  0.236182E-01  0.250870E-01  0.269964E-01
  0.290439E-01  0.308515E-01  0.320687E-01  0.324928E-01  0.339526E-01  0.335823E-01
  0.324688E-01  0.306982E-01  0.285771E-01  0.265722E-01  0.250870E-01  0.243216E-01
  0.243216E-01  0.250870E-01  0.265722E-01  0.285771E-01  0.306982E-01  0.324688E-01
  0.335823E-01  0.339526E-01  0.340885E-01  0.340352E-01  0.336488E-01  0.325248E-01
  0.306467E-01  0.285771E-01  0.269964E-01  0.262115E-01  0.262115E-01  0.269964E-01
  0.285771E-01  0.306467E-01  0.325248E-01  0.336488E-01  0.340352E-01  0.340885E-01
  0.310276E-01  0.316329E-01  0.328599E-01  0.334160E-01  0.325248E-01  0.306982E-01
  0.290439E-01  0.281888E-01  0.281888E-01  0.290439E-01  0.306982E-01  0.325248E-01
  0.334160E-01  0.328599E-01  0.316329E-01  0.310276E-01  0.252576E-01  0.266421E-01
  0.299130E-01  0.328599E-01  0.336488E-01  0.324688E-01  0.308515E-01  0.299101E-01
  0.299101E-01  0.308515E-01  0.324688E-01  0.336488E-01  0.328599E-01  0.299130E-01
  0.266421E-01  0.252576E-01  0.198765E-01  0.218086E-01  0.266421E-01  0.316329E-01
  0.340352E-01  0.335823E-01  0.320687E-01  0.310577E-01  0.310577E-01  0.320687E-01
  0.335823E-01  0.340352E-01  0.316329E-01  0.266421E-01  0.218086E-01  0.198765E-01
  0.177667E-01  0.198765E-01  0.252576E-01  0.310276E-01  0.340885E-01  0.339526E-01
  0.324928E-01  0.314548E-01  0.314548E-01  0.324928E-01  0.339526E-01  0.340885E-01
  0.310276E-01  0.252576E-01  0.198765E-01  0.177667E-01  0.266701E-01  0.278016E-01
  0.304197E-01  0.327050E-01  0.332903E-01  0.324213E-01  0.312840E-01  0.306544E-01
  0.306544E-01  0.312840E-01  0.324213E-01  0.332903E-01  0.327050E-01  0.304197E-01
  0.278016E-01  0.266701E-01  0.278016E-01  0.287962E-01  0.310547E-01  0.329172E-01
  0.332025E-01  0.322176E-01  0.310770E-01  0.304673E-01  0.304673E-01  0.310770E-01
  0.322176E-01  0.332025E-01  0.329172E-01  0.310547E-01  0.287962E-01  0.278016E-01
  0.304197E-01  0.310547E-01  0.323958E-01  0.332287E-01  0.328261E-01  0.316006E-01
  0.304655E-01  0.299000E-01  0.299000E-01  0.304655E-01  0.316006E-01  0.328261E-01
  0.332287E-01  0.323958E-01  0.310547E-01  0.304197E-01  0.327050E-01  0.329172E-01
  0.332287E-01  0.330003E-01  0.319825E-01  0.306084E-01  0.295169E-01  0.289907E-01
  0.289906E-01  0.295169E-01  0.306083E-01  0.319825E-01  0.330003E-01  0.332287E-01
  0.329172E-01  0.327050E-01  0.332903E-01  0.332025E-01  0.328261E-01  0.319825E-01
  0.307231E-01  0.293942E-01  0.283831E-01  0.278729E-01  0.278729E-01  0.283831E-01
  0.293942E-01  0.307231E-01  0.319825E-01  0.328261E-01  0.332025E-01  0.332903E-01
  0.324213E-01  0.322176E-01  0.316006E-01  0.306084E-01  0.293942E-01  0.281966E-01
  0.272498E-01  0.267287E-01  0.267287E-01  0.272498E-01  0.281966E-01  0.293942E-01
  0.306083E-01  0.316006E-01  0.322176E-01  0.324213E-01  0.312840E-01  0.310770E-01
  0.304655E-01  0.295169E-01  0.283831E-01  0.272498E-01  0.263059E-01  0.257546E-01
  0.257546E-01  0.263059E-01  0.272498E-01  0.283830E-01  0.295169E-01  0.304655E-01
  0.310770E-01  0.312840E-01  0.306544E-01  0.304673E-01  0.299000E-01  0.289906E-01
  0.278729E-01  0.267287E-01  0.257546E-01  0.251765E-01  0.251765E-01  0.257546E-01
  0.267287E-01  0.278729E-01  0.289906E-01  0.299000E-01  0.304673E-01  0.306544E-01
  0.306544E-01  0.304673E-01  0.299000E-01  0.289906E-01  0.278729E-01  0.267287E-01
  0.257546E-01  0.251764E-01  0.251764E-01  0.257546E-01  0.267287E-01  0.278729E-01
  0.289906E-01  0.299000E-01  0.304673E-01  0.306544E-01  0.312840E-01  0.310770E-01
  0.304655E-01  0.295169E-01  0.283830E-01  0.272498E-01  0.263059E-01  0.257546E-01
  0.257546E-01  0.263059E-01  0.272498E-01  0.283830E-01  0.295169E-01  0.304655E-01
  0.310770E-01  0.312840E-01  0.324213E-01  0.322176E-01  0.316006E-01  0.306083E-01
  0.293942E-01  0.281966E-01  0.272498E-01  0.267287E-01  0.267287E-01  0.272498E-01
  0.281966E-01  0.293941E-01  0.306083E-01  0.316006E-01  0.322176E-01  0.324213E-01
  0.332903E-01  0.332025E-01  0.328261E-01  0.319825E-01  0.307231E-01  0.293942E-01
  0.283830E-01  0.278729E-01  0.278729E-01  0.283830E-01  0.293941E-01  0.307231E-01
  0.319824E-01  0.328261E-01  0.332025E-01  0.332903E-01  0.327050E-01  0.329172E-01
  0.332286E-01  0.330003E-01  0.319825E-01  0.306083E-01  0.295169E-01  0.289906E-01
  0.289906E-01  0.295169E-01  0.306083E-01  0.319824E-01  0.330002E-01  0.332286E-01
  0.329172E-01  0.327050E-01  0.304197E-01  0.310547E-01  0.323958E-01  0.332287E-01
  0.328261E-01  0.316006E-01  0.304655E-01  0.299000E-01  0.299000E-01  0.304655E-01
  0.316006E-01  0.328261E-01  0.332286E-01  0.323958E-01  0.310547E-01  0.304197E-01
  0.278016E-01  0.287962E-01  0.310547E-01  0.329172E-01  0.332025E-01  0.322176E-01
  0.310770E-01  0.304673E-01  0.304673E-01  0.310770E-01  0.322176E-01  0.332025E-01
  0.329172E-01  0.310547E-01  0.287962E-01  0.278016E-01  0.266701E-01  0.278016E-01
  0.304197E-01  0.327050E-01  0.332903E-01  0.324213E-01  0.312840E-01  0.306544E-01
  0.306544E-01  0.312840E-01  0.324213E-01  0.332903E-01  0.327050E-01  0.304197E-01
  0.278016E-01  0.266701E-01  0.295544E-01  0.299742E-01  0.308785E-01  0.315239E-01
  0.314779E-01  0.309673E-01  0.304856E-01  0.302631E-01  0.302631E-01  0.304856E-01
  0.309673E-01  0.314778E-01  0.315239E-01  0.308785E-01  0.299742E-01  0.295544E-01
  0.299742E-01  0.303433E-01  0.311197E-01  0.316233E-01  0.314840E-01  0.309430E-01
  0.304658E-01  0.302521E-01  0.302521E-01  0.304657E-01  0.309430E-01  0.314840E-01
  0.316233E-01  0.311197E-01  0.303433E-01  0.299742E-01  0.308785E-01  0.311197E-01
  0.315867E-01  0.317756E-01  0.314600E-01  0.308858E-01  0.304327E-01  0.302376E-01
  0.302376E-01  0.304327E-01  0.308858E-01  0.314600E-01  0.317756E-01  0.315867E-01
  0.311197E-01  0.308785E-01  0.315239E-01  0.316233E-01  0.317756E-01  0.317069E-01
  0.313234E-01  0.308063E-01  0.304045E-01  0.302166E-01  0.302166E-01  0.304045E-01
  0.308063E-01  0.313234E-01  0.317069E-01  0.317756E-01  0.316233E-01  0.315239E-01
  0.314779E-01  0.314840E-01  0.314600E-01  0.313234E-01  0.310383E-01  0.306587E-01
  0.303014E-01  0.300864E-01  0.300864E-01  0.303014E-01  0.306586E-01  0.310383E-01
  0.313234E-01  0.314600E-01  0.314840E-01  0.314779E-01  0.309673E-01  0.309430E-01
  0.308858E-01  0.308063E-01  0.306587E-01  0.303777E-01  0.300017E-01  0.297182E-01
  0.297182E-01  0.300017E-01  0.303777E-01  0.306586E-01  0.308063E-01  0.308858E-01
  0.309430E-01  0.309673E-01  0.304856E-01  0.304658E-01  0.304327E-01  0.304045E-01
  0.303014E-01  0.300017E-01  0.295365E-01  0.291668E-01  0.291668E-01  0.295365E-01
  0.300017E-01  0.303014E-01  0.304045E-01  0.304327E-01  0.304657E-01  0.304856E-01
  0.302631E-01  0.302521E-01  0.302376E-01  0.302166E-01  0.300864E-01  0.297182E-01
  0.291668E-01  0.287372E-01  0.287372E-01  0.291668E-01  0.297181E-01  0.300864E-01
  0.302166E-01  0.302375E-01  0.302521E-01  0.302631E-01  0.302631E-01  0.302521E-01
  0.302376E-01  0.302166E-01  0.300864E-01  0.297182E-01  0.291668E-01  0.287372E-01
  0.287372E-01  0.291668E-01  0.297181E-01  0.300864E-01  0.302166E-01  0.302375E-01
  0.302521E-01  0.302631E-01  0.304856E-01  0.304657E-01  0.304327E-01  0.304045E-01
  0.303014E-01  0.300017E-01  0.295365E-01  0.291668E-01  0.291668E-01  0.295365E-01
  0.300017E-01  0.303014E-01  0.304045E-01  0.304327E-01  0.304657E-01  0.304856E-01
  0.309673E-01  0.309430E-01  0.308858E-01  0.308063E-01  0.306586E-01  0.303777E-01
  0.300017E-01  0.297181E-01  0.297181E-01  0.300017E-01  0.303777E-01  0.306586E-01
  0.308063E-01  0.308858E-01  0.309430E-01  0.309673E-01  0.314778E-01  0.314840E-01
  0.314600E-01  0.313234E-01  0.310383E-01  0.306586E-01  0.303014E-01  0.300864E-01
  0.300864E-01  0.303014E-01  0.306586E-01  0.310382E-01  0.313234E-01  0.314599E-01
  0.314840E-01  0.314778E-01  0.315239E-01  0.316233E-01  0.317756E-01  0.317069E-01
  0.313234E-01  0.308063E-01  0.304045E-01  0.302166E-01  0.302165E-01  0.304045E-01
  0.308063E-01  0.313234E-01  0.317069E-01  0.317755E-01  0.316233E-01  0.315239E-01
  0.308785E-01  0.311197E-01  0.315867E-01  0.317756E-01  0.314600E-01  0.308858E-01
  0.304327E-01  0.302375E-01  0.302375E-01  0.304327E-01  0.308858E-01  0.314599E-01
  0.317755E-01  0.315867E-01  0.311197E-01  0.308785E-01  0.299742E-01  0.303433E-01
  0.311197E-01  0.316233E-01  0.314840E-01  0.309430E-01  0.304657E-01  0.302521E-01
  0.302521E-01  0.304657E-01  0.309430E-01  0.314840E-01  0.316233E-01  0.311197E-01
  0.303433E-01  0.299742E-01  0.295544E-01  0.299742E-01  0.308785E-01  0.315239E-01
  0.314779E-01  0.309673E-01  0.304856E-01  0.302631E-01  0.302631E-01  0.304856E-01
  0.309673E-01  0.314778E-01  0.315239E-01  0.308785E-01  0.299742E-01  0.295544E-01
  0.276443E-01  0.278810E-01  0.284550E-01  0.290874E-01  0.295868E-01  0.299266E-01
  0.301477E-01  0.302637E-01  0.302637E-01  0.301476E-01  0.299266E-01  0.295868E-01
  0.290874E-01  0.284550E-01  0.278810E-01  0.276443E-01  0.278810E-01  0.281088E-01
  0.286590E-01  0.292619E-01  0.297406E-01  0.300778E-01  0.303103E-01  0.304383E-01
  0.304383E-01  0.303103E-01  0.300778E-01  0.297406E-01  0.292619E-01  0.286590E-01
  0.281088E-01  0.278810E-01  0.284550E-01  0.286590E-01  0.291582E-01  0.297256E-01
  0.302092E-01  0.305823E-01  0.308554E-01  0.310080E-01  0.310080E-01  0.308554E-01
  0.305823E-01  0.302091E-01  0.297255E-01  0.291582E-01  0.286590E-01  0.284550E-01
  0.290874E-01  0.292620E-01  0.297256E-01  0.303351E-01  0.309361E-01  0.314150E-01
  0.317207E-01  0.318603E-01  0.318603E-01  0.317207E-01  0.314150E-01  0.309361E-01
  0.303351E-01  0.297255E-01  0.292619E-01  0.290874E-01  0.295868E-01  0.297406E-01
  0.302092E-01  0.309361E-01  0.317081E-01  0.322485E-01  0.324485E-01  0.324506E-01
  0.324506E-01  0.324485E-01  0.322484E-01  0.317081E-01  0.309361E-01  0.302091E-01
  0.297406E-01  0.295868E-01  0.299267E-01  0.300778E-01  0.305823E-01  0.314150E-01
  0.322485E-01  0.326359E-01  0.324821E-01  0.321808E-01  0.321808E-01  0.324820E-01
  0.326359E-01  0.322484E-01  0.314150E-01  0.305823E-01  0.300778E-01  0.299267E-01
  0.301477E-01  0.303103E-01  0.308554E-01  0.317207E-01  0.324485E-01  0.324821E-01
  0.318220E-01  0.311479E-01  0.311479E-01  0.318220E-01  0.324820E-01  0.324485E-01
  0.317207E-01  0.308554E-01  0.303103E-01  0.301477E-01  0.302637E-01  0.304383E-01
  0.310080E-01  0.318603E-01  0.324506E-01  0.321808E-01  0.311479E-01  0.302190E-01
  0.302190E-01  0.311479E-01  0.321808E-01  0.324506E-01  0.318603E-01  0.310079E-01
  0.304383E-01  0.302637E-01  0.302637E-01  0.304383E-01  0.310080E-01  0.318603E-01
  0.324506E-01  0.321808E-01  0.311479E-01  0.302190E-01  0.302190E-01  0.311479E-01
  0.321808E-01  0.324505E-01  0.318603E-01  0.310079E-01  0.304383E-01  0.302637E-01
  0.301476E-01  0.303103E-01  0.308554E-01  0.317207E-01  0.324485E-01  0.324820E-01
  0.318220E-01  0.311479E-01  0.311479E-01  0.318220E-01  0.324820E-01  0.324485E-01
  0.317207E-01  0.308554E-01  0.303103E-01  0.301476E-01  0.299266E-01  0.300778E-01
  0.305823E-01  0.314149E-01  0.322484E-01  0.326359E-01  0.324820E-01  0.321808E-01
  0.321808E-01  0.324820E-01  0.326359E-01  0.322484E-01  0.314149E-01  0.305823E-01
  0.300778E-01  0.299266E-01  0.295868E-01  0.297406E-01  0.302091E-01  0.309361E-01
  0.317081E-01  0.322484E-01  0.324485E-01  0.324505E-01  0.324505E-01  0.324485E-01
  0.322484E-01  0.317081E-01  0.309361E-01  0.302091E-01  0.297406E-01  0.295868E-01
  0.290874E-01  0.292619E-01  0.297255E-01  0.303350E-01  0.309361E-01  0.314149E-01
  0.317207E-01  0.318603E-01  0.318603E-01  0.317207E-01  0.314149E-01  0.309361E-01
  0.303350E-01  0.297255E-01  0.292619E-01  0.290874E-01  0.284550E-01  0.286589E-01
  0.291582E-01  0.297255E-01  0.302091E-01  0.305823E-01  0.308554E-01  0.310079E-01
  0.310079E-01  0.308554E-01  0.305823E-01  0.302091E-01  0.297255E-01  0.291581E-01
  0.286589E-01  0.284550E-01  0.278810E-01  0.281088E-01  0.286590E-01  0.292619E-01
  0.297406E-01  0.300778E-01  0.303103E-01  0.304383E-01  0.304383E-01  0.303103E-01
  0.300778E-01  0.297406E-01  0.292619E-01  0.286589E-01  0.281088E-01  0.278810E-01
  0.276443E-01  0.278810E-01  0.284550E-01  0.290874E-01  0.295868E-01  0.299266E-01
  0.301477E-01  0.302637E-01  0.302637E-01  0.301476E-01  0.299266E-01  0.295868E-01
  0.290874E-01  0.284550E-01  0.278810E-01  0.276443E-01  0.244211E-01  0.247454E-01
  0.256174E-01  0.268164E-01  0.281144E-01  0.292887E-01  0.301387E-01  0.305648E-01
  0.305648E-01  0.301387E-01  0.292887E-01  0.281144E-01  0.268164E-01  0.256174E-01
  0.247454E-01  0.244211E-01  0.247454E-01  0.250628E-01  0.259203E-01  0.271098E-01
  0.284140E-01  0.296142E-01  0.305025E-01  0.309582E-01  0.309582E-01  0.305025E-01
  0.296141E-01  0.284140E-01  0.271098E-01  0.259203E-01  0.250628E-01  0.247454E-01
  0.256174E-01  0.259203E-01  0.267614E-01  0.279760E-01  0.293505E-01  0.306366E-01
  0.315984E-01  0.320969E-01  0.320969E-01  0.315984E-01  0.306366E-01  0.293504E-01
  0.279759E-01  0.267614E-01  0.259203E-01  0.256174E-01  0.268164E-01  0.271098E-01
  0.279760E-01  0.293103E-01  0.308352E-01  0.321713E-01  0.330526E-01  0.334508E-01
  0.334508E-01  0.330526E-01  0.321712E-01  0.308352E-01  0.293102E-01  0.279759E-01
  0.271098E-01  0.268164E-01  0.281144E-01  0.284140E-01  0.293505E-01  0.308352E-01
  0.324056E-01  0.334519E-01  0.337685E-01  0.337082E-01  0.337082E-01  0.337685E-01
  0.334519E-01  0.324055E-01  0.308352E-01  0.293504E-01  0.284140E-01  0.281144E-01
  0.292887E-01  0.296142E-01  0.306366E-01  0.321713E-01  0.334519E-01  0.336343E-01
  0.327633E-01  0.318476E-01  0.318476E-01  0.327633E-01  0.336343E-01  0.334519E-01
  0.321712E-01  0.306366E-01  0.296141E-01  0.292887E-01  0.301387E-01  0.305025E-01
  0.315984E-01  0.330526E-01  0.337685E-01  0.327633E-01  0.304767E-01  0.286178E-01
  0.286178E-01  0.304767E-01  0.327633E-01  0.337685E-01  0.330526E-01  0.315984E-01
  0.305025E-01  0.301387E-01  0.305648E-01  0.309582E-01  0.320969E-01  0.334508E-01
  0.337082E-01  0.318476E-01  0.286178E-01  0.261646E-01  0.261646E-01  0.286178E-01
  0.318476E-01  0.337082E-01  0.334508E-01  0.320969E-01  0.309582E-01  0.305648E-01
  0.305648E-01  0.309582E-01  0.320969E-01  0.334508E-01  0.337082E-01  0.318476E-01
  0.286178E-01  0.261646E-01  0.261646E-01  0.286178E-01  0.318476E-01  0.337082E-01
  0.334508E-01  0.320968E-01  0.309582E-01  0.305648E-01  0.301387E-01  0.305025E-01
  0.315984E-01  0.330526E-01  0.337685E-01  0.327633E-01  0.304767E-01  0.286178E-01
  0.286178E-01  0.304767E-01  0.327633E-01  0.337685E-01  0.330526E-01  0.315984E-01
  0.305025E-01  0.301387E-01  0.292887E-01  0.296141E-01  0.306366E-01  0.321712E-01
  0.334519E-01  0.336343E-01  0.327633E-01  0.318476E-01  0.318476E-01  0.327633E-01
  0.336343E-01  0.334518E-01  0.321712E-01  0.306365E-01  0.296141E-01  0.292887E-01
  0.281144E-01  0.284140E-01  0.293504E-01  0.308352E-01  0.324055E-01  0.334519E-01
  0.337685E-01  0.337082E-01  0.337082E-01  0.337685E-01  0.334518E-01  0.324055E-01
  0.308352E-01  0.293504E-01  0.284140E-01  0.281144E-01  0.268164E-01  0.271098E-01
  0.279759E-01  0.293102E-01  0.308352E-01  0.321712E-01  0.330526E-01  0.334508E-01
  0.334508E-01  0.330526E-01  0.321712E-01  0.308352E-01  0.293102E-01  0.279759E-01
  0.271098E-01  0.268164E-01  0.256174E-01  0.259203E-01  0.267614E-01  0.279759E-01
  0.293504E-01  0.306366E-01  0.315984E-01  0.320968E-01  0.320968E-01  0.315984E-01
  0.306365E-01  0.293504E-01  0.279759E-01  0.267614E-01  0.259203E-01  0.256174E-01
  0.247454E-01  0.250628E-01  0.259203E-01  0.271098E-01  0.284140E-01  0.296141E-01
  0.305025E-01  0.309582E-01  0.309582E-01  0.305025E-01  0.296141E-01  0.284140E-01
  0.271098E-01  0.259203E-01  0.250628E-01  0.247454E-01  0.244211E-01  0.247454E-01
  0.256174E-01  0.268164E-01  0.281144E-01  0.292887E-01  0.301387E-01  0.305648E-01
  0.305648E-01  0.301387E-01  0.292887E-01  0.281144E-01  0.268164E-01  0.256174E-01
  0.247454E-01  0.244211E-01  0.217748E-01  0.222143E-01  0.234147E-01  0.251154E-01