 CRYSTAL
 PRIMVEC
    2.794539329    0.000000000    0.000000000
    0.000000000    2.794539329    0.000000000
    0.000000000    0.000000000   23.109619040
 PRIMCOORD
           5           1
Al       -0.000001294    0.000000547   -0.107045767
Al        1.397268790    1.397268684    1.905470526
Al        0.000000000    0.000000000    3.952076643
Al        1.397270637    1.397271076    5.998684574
Al        0.000001078   -0.000000325    8.011217802
BEGIN_BLOCK_DATAGRID_3D
3D_PWSCF
DATAGRID_3D_UNKNOWN
          16          16         126
  0.000000  0.000000  0.000000
  2.794539  0.000000  0.000000
  0.000000  2.794539  0.000000
  0.000000  0.000000 23.109619
  0.403441E-03  0.190225E-02  0.851497E-02  0.203394E-01  0.309698E-01  0.352461E-01
  0.346162E-01  0.331246E-01  0.331246E-01  0.346162E-01  0.352461E-01  0.309697E-01
  0.203393E-01  0.851484E-02  0.190220E-02  0.403441E-03  0.190222E-02  0.380418E-02
  0.108168E-01  0.220169E-01  0.313734E-01  0.347042E-01  0.337479E-01  0.322385E-01
  0.322385E-01  0.337479E-01  0.347042E-01  0.313733E-01  0.220167E-01  0.108167E-01
  0.380412E-02  0.190222E-02  0.851488E-02  0.108167E-01  0.175446E-01  0.261855E-01
  0.320201E-01  0.330333E-01  0.313569E-01  0.298451E-01  0.298451E-01  0.313569E-01
  0.330333E-01  0.320200E-01  0.261854E-01  0.175445E-01  0.108167E-01  0.851488E-02
  0.203393E-01  0.220168E-01  0.261855E-01  0.302779E-01  0.316814E-01  0.302720E-01
  0.280113E-01  0.265921E-01  0.265921E-01  0.280114E-01  0.302720E-01  0.316814E-01
  0.302778E-01  0.261854E-01  0.220168E-01  0.203393E-01  0.309697E-01  0.313733E-01
  0.320200E-01  0.316814E-01  0.297159E-01  0.268627E-01  0.244425E-01  0.231895E-01
  0.231895E-01  0.244425E-01  0.268627E-01  0.297159E-01  0.316814E-01  0.320200E-01
  0.313733E-01  0.309697E-01  0.352461E-01  0.347042E-01  0.330333E-01  0.302720E-01
  0.268627E-01  0.236334E-01  0.213161E-01  0.201782E-01  0.201783E-01  0.213162E-01
  0.236334E-01  0.268627E-01  0.302720E-01  0.330333E-01  0.347042E-01  0.352461E-01
  0.346162E-01  0.337479E-01  0.313569E-01  0.280113E-01  0.244425E-01  0.213161E-01
  0.190752E-01  0.179250E-01  0.179250E-01  0.190752E-01  0.213162E-01  0.244425E-01
  0.280114E-01  0.313569E-01  0.337479E-01  0.346162E-01  0.331246E-01  0.322385E-01
  0.298451E-01  0.265921E-01  0.231895E-01  0.201782E-01  0.179250E-01  0.167085E-01
  0.167085E-01  0.179250E-01  0.201783E-01  0.231895E-01  0.265921E-01  0.298451E-01
  0.322385E-01  0.331246E-01  0.331246E-01  0.322385E-01  0.298451E-01  0.265921E-01
  0.231895E-01  0.201782E-01  0.179250E-01  0.167085E-01  0.167085E-01  0.179250E-01
  0.201783E-01  0.231895E-01  0.265921E-01  0.298451E-01  0.322385E-01  0.331246E-01
  0.346162E-01  0.337479E-01  0.313568E-01  0.280113E-01  0.244424E-01  0.213161E-01
  0.190752E-01  0.179250E-01  0.179250E-01  0.190752E-01  0.213161E-01  0.244425E-01
  0.280113E-01  0.313569E-01  0.337479E-01  0.346162E-01  0.352461E-01  0.347042E-01
  0.330333E-01  0.302720E-01  0.268626E-01  0.236333E-01  0.213161E-01  0.201782E-01
  0.201782E-01  0.213161E-01  0.236334E-01  0.268627E-01  0.302720E-01  0.330333E-01
  0.347042E-01  0.352461E-01  0.309698E-01  0.313733E-01  0.320201E-01  0.316814E-01
  0.297158E-01  0.268626E-01  0.244425E-01  0.231895E-01  0.231895E-01  0.244425E-01
  0.268627E-01  0.297159E-01  0.316814E-01  0.320201E-01  0.313733E-01  0.309698E-01
  0.203394E-01  0.220169E-01  0.261855E-01  0.302779E-01  0.316814E-01  0.302720E-01
  0.280113E-01  0.265921E-01  0.265921E-01  0.280113E-01  0.302720E-01  0.316814E-01
  0.302778E-01  0.261855E-01  0.220168E-01  0.203394E-01  0.851493E-02  0.108168E-01
  0.175446E-01  0.261855E-01  0.320201E-01  0.330333E-01  0.313568E-01  0.298451E-01
  0.298451E-01  0.313569E-01  0.330333E-01  0.320200E-01  0.261854E-01  0.175445E-01
  0.108167E-01  0.851493E-02  0.190224E-02  0.380420E-02  0.108168E-01  0.220169E-01
  0.313734E-01  0.347042E-01  0.337479E-01  0.322385E-01  0.322385E-01  0.337479E-01
  0.347042E-01  0.313733E-01  0.220168E-01  0.108167E-01  0.380414E-02  0.190224E-02
  0.403441E-03  0.190225E-02  0.851497E-02  0.203394E-01  0.309698E-01  0.352461E-01
  0.346162E-01  0.331246E-01  0.331246E-01  0.346162E-01  0.352461E-01  0.309697E-01
  0.203393E-01  0.851484E-02  0.190220E-02  0.403441E-03  0.360312E-02  0.583564E-02
  0.131792E-01  0.239050E-01  0.323374E-01  0.350879E-01  0.340587E-01  0.326526E-01
  0.326526E-01  0.340587E-01  0.350879E-01  0.323374E-01  0.239049E-01  0.131791E-01
  0.583557E-02  0.360312E-02  0.583559E-02  0.818953E-02  0.154189E-01  0.252909E-01
  0.325689E-01  0.345683E-01  0.333109E-01  0.319079E-01  0.319080E-01  0.333109E-01
  0.345683E-01  0.325689E-01  0.252908E-01  0.154188E-01  0.818946E-02  0.583559E-02
  0.131791E-01  0.154189E-01  0.214968E-01  0.285955E-01  0.328100E-01  0.329963E-01
  0.312435E-01  0.298764E-01  0.298764E-01  0.312435E-01  0.329963E-01  0.328099E-01
  0.285954E-01  0.214967E-01  0.154188E-01  0.131791E-01  0.239049E-01  0.252909E-01
  0.285955E-01  0.315444E-01  0.321138E-01  0.304642E-01  0.283343E-01  0.270730E-01
  0.270731E-01  0.283343E-01  0.304642E-01  0.321138E-01  0.315444E-01  0.285955E-01
  0.252908E-01  0.239049E-01  0.323374E-01  0.325689E-01  0.328099E-01  0.321138E-01
  0.300738E-01  0.273990E-01  0.252098E-01  0.240936E-01  0.240936E-01  0.252098E-01
  0.273990E-01  0.300739E-01  0.321138E-01  0.328099E-01  0.325689E-01  0.323374E-01
  0.350879E-01  0.345683E-01  0.329963E-01  0.304642E-01  0.273990E-01  0.245178E-01
  0.224416E-01  0.214113E-01  0.214113E-01  0.224416E-01  0.245178E-01  0.273990E-01
  0.304642E-01  0.329963E-01  0.345683E-01  0.350879E-01  0.340587E-01  0.333109E-01
  0.312435E-01  0.283343E-01  0.252097E-01  0.224416E-01  0.204214E-01  0.193645E-01
  0.193645E-01  0.204214E-01  0.224416E-01  0.252098E-01  0.283343E-01  0.312435E-01
  0.333109E-01  0.340587E-01  0.326526E-01  0.319079E-01  0.298764E-01  0.270730E-01
  0.240936E-01  0.214113E-01  0.193645E-01  0.182400E-01  0.182400E-01  0.193646E-01
  0.214114E-01  0.240936E-01  0.270731E-01  0.298764E-01  0.319080E-01  0.326526E-01
  0.326526E-01  0.319079E-01  0.298764E-01  0.270730E-01  0.240936E-01  0.214113E-01
  0.193645E-01  0.182400E-01  0.182400E-01  0.193645E-01  0.214113E-01  0.240936E-01
  0.270731E-01  0.298764E-01  0.319079E-01  0.326526E-01  0.340587E-01  0.333109E-01
  0.312434E-01  0.283343E-01  0.252097E-01  0.224416E-01  0.204214E-01  0.193645E-01
  0.193645E-01  0.204214E-01  0.224416E-01  0.252098E-01  0.283343E-01  0.312435E-01
  0.333109E-01  0.340587E-01  0.350879E-01  0.345683E-01  0.329963E-01  0.304641E-01
  0.273989E-01  0.245177E-01  0.224416E-01  0.214113E-01  0.214113E-01  0.224416E-01
  0.245178E-01  0.273990E-01  0.304642E-01  0.329963E-01  0.345683E-01  0.350879E-01
  0.323374E-01  0.325689E-01  0.328099E-01  0.321138E-01  0.300738E-01  0.273989E-01
  0.252097E-01  0.240936E-01  0.240936E-01  0.252098E-01  0.273990E-01  0.300738E-01
  0.321138E-01  0.328099E-01  0.325689E-01  0.323374E-01  0.239049E-01  0.252909E-01
  0.285955E-01  0.315444E-01  0.321138E-01  0.304641E-01  0.283343E-01  0.270730E-01
  0.270730E-01  0.283343E-01  0.304642E-01  0.321138E-01  0.315444E-01  0.285955E-01
  0.252909E-01  0.239049E-01  0.131792E-01  0.154189E-01  0.214968E-01  0.285955E-01
  0.328099E-01  0.329963E-01  0.312434E-01  0.298764E-01  0.298764E-01  0.312435E-01
  0.329963E-01  0.328099E-01  0.285954E-01  0.214967E-01  0.154188E-01  0.131792E-01
  0.583562E-02  0.818955E-02  0.154189E-01  0.252909E-01  0.325689E-01  0.345683E-01
  0.333109E-01  0.319079E-01  0.319079E-01  0.333109E-01  0.345683E-01  0.325689E-01
  0.252908E-01  0.154188E-01  0.818949E-02  0.583562E-02  0.360312E-02  0.583564E-02
  0.131792E-01  0.239050E-01  0.323374E-01  0.350879E-01  0.340587E-01  0.326526E-01
  0.326526E-01  0.340587E-01  0.350879E-01  0.323374E-01  0.239049E-01  0.131791E-01
  0.583557E-02  0.360312E-02  0.122368E-01  0.146275E-01  0.211216E-01  0.287914E-01
  0.335841E-01  0.342427E-01  0.328100E-01  0.316040E-01  0.316040E-01  0.328101E-01
  0.342428E-01  0.335841E-01  0.287913E-01  0.211215E-01  0.146274E-01  0.122368E-01
  0.146275E-01  0.168887E-01  0.228708E-01  0.296527E-01  0.335947E-01  0.337974E-01
  0.322623E-01  0.310797E-01  0.310797E-01  0.322623E-01  0.337974E-01  0.335947E-01
  0.296527E-01  0.228708E-01  0.168886E-01  0.146275E-01  0.211216E-01  0.228708E-01
  0.272017E-01  0.315306E-01  0.333315E-01  0.324654E-01  0.307194E-01  0.296054E-01
  0.296054E-01  0.307194E-01  0.324655E-01  0.333315E-01  0.315305E-01  0.272017E-01
  0.228708E-01  0.211216E-01  0.287913E-01  0.296527E-01  0.315305E-01  0.327766E-01
  0.322349E-01  0.303590E-01  0.284881E-01  0.274767E-01  0.274767E-01  0.284881E-01
  0.303591E-01  0.322350E-01  0.327766E-01  0.315305E-01  0.296527E-01  0.287913E-01
  0.335841E-01  0.335947E-01  0.333315E-01  0.322349E-01  0.301952E-01  0.278482E-01
  0.260238E-01  0.251127E-01  0.251127E-01  0.260238E-01  0.278483E-01  0.301952E-01
  0.322350E-01  0.333315E-01  0.335947E-01  0.335841E-01  0.342428E-01  0.337974E-01
  0.324654E-01  0.303590E-01  0.278482E-01  0.254951E-01  0.237778E-01  0.229079E-01
  0.229079E-01  0.237779E-01  0.254951E-01  0.278483E-01  0.303591E-01  0.324655E-01
  0.337975E-01  0.342428E-01  0.328101E-01  0.322623E-01  0.307194E-01  0.284881E-01
  0.260237E-01  0.237778E-01  0.220877E-01  0.211790E-01  0.211791E-01  0.220877E-01
  0.237779E-01  0.260238E-01  0.284881E-01  0.307194E-01  0.322623E-01  0.328101E-01
  0.316040E-01  0.310797E-01  0.296054E-01  0.274767E-01  0.251127E-01  0.229078E-01
  0.211790E-01  0.202113E-01  0.202113E-01  0.211791E-01  0.229079E-01  0.251127E-01
  0.274767E-01  0.296054E-01  0.310797E-01  0.316040E-01  0.316040E-01  0.310797E-01
  0.296054E-01  0.274767E-01  0.251126E-01  0.229078E-01  0.211790E-01  0.202113E-01
  0.202113E-01  0.211790E-01  0.229079E-01  0.251127E-01  0.274767E-01  0.296054E-01
  0.310797E-01  0.316040E-01  0.328100E-01  0.322623E-01  0.307194E-01  0.284880E-01
  0.260237E-01  0.237778E-01  0.220876E-01  0.211790E-01  0.211790E-01  0.220877E-01
  0.237778E-01  0.260238E-01  0.284881E-01  0.307194E-01  0.322623E-01  0.328100E-01
  0.342427E-01  0.337974E-01  0.324654E-01  0.303590E-01  0.278482E-01  0.254951E-01
  0.237778E-01  0.229078E-01  0.229078E-01  0.237778E-01  0.254951E-01  0.278482E-01
  0.303590E-01  0.324654E-01  0.337974E-01  0.342427E-01  0.335841E-01  0.335947E-01
  0.333315E-01  0.322349E-01  0.301951E-01  0.278482E-01  0.260237E-01  0.251126E-01
  0.251127E-01  0.260237E-01  0.278482E-01  0.301952E-01  0.322349E-01  0.333315E-01
  0.335947E-01  0.335841E-01  0.287914E-01  0.296527E-01  0.315305E-01  0.327766E-01
  0.322349E-01  0.303590E-01  0.284880E-01  0.274767E-01  0.274767E-01  0.284881E-01
  0.303590E-01  0.322349E-01  0.327766E-01  0.315305E-01  0.296527E-01  0.287914E-01
  0.211216E-01  0.228708E-01  0.272017E-01  0.315305E-01  0.333315E-01  0.324654E-01
  0.307194E-01  0.296054E-01  0.296054E-01  0.307194E-01  0.324654E-01  0.333315E-01
  0.315305E-01  0.272017E-01  0.228708E-01  0.211216E-01  0.146275E-01  0.168887E-01
  0.228709E-01  0.296527E-01  0.335947E-01  0.337974E-01  0.322623E-01  0.310797E-01
  0.310797E-01  0.322623E-01  0.337974E-01  0.335947E-01  0.296527E-01  0.228708E-01
  0.168886E-01  0.146275E-01  0.122368E-01  0.146275E-01  0.211216E-01  0.287914E-01
  0.335841E-01  0.342427E-01  0.328100E-01  0.316040E-01  0.316040E-01  0.328101E-01
  0.342428E-01  0.335841E-01  0.287913E-01  0.211215E-01  0.146274E-01  0.122368E-01
  0.228930E-01  0.244862E-01  0.283397E-01  0.320653E-01  0.335584E-01  0.328424E-01
  0.314618E-01  0.306125E-01  0.306125E-01  0.314618E-01  0.328424E-01  0.335584E-01
  0.320653E-01  0.283397E-01  0.244862E-01  0.228930E-01  0.244862E-01  0.259090E-01
  0.292897E-01  0.324174E-01  0.334535E-01  0.325412E-01  0.311408E-01  0.303167E-01
  0.303167E-01  0.311408E-01  0.325412E-01  0.334535E-01  0.324174E-01  0.292897E-01
  0.259090E-01  0.244862E-01  0.283397E-01  0.292897E-01  0.314116E-01  0.330333E-01
  0.329823E-01  0.316355E-01  0.302056E-01  0.294413E-01  0.294413E-01  0.302056E-01
  0.316356E-01  0.329823E-01  0.330333E-01  0.314115E-01  0.292897E-01  0.283397E-01
  0.320653E-01  0.324174E-01  0.330333E-01  0.330035E-01  0.318885E-01  0.301962E-01
  0.287860E-01  0.280848E-01  0.280849E-01  0.287860E-01  0.301962E-01  0.318885E-01
  0.330035E-01  0.330333E-01  0.324174E-01  0.320653E-01  0.335584E-01  0.334535E-01
  0.329823E-01  0.318885E-01  0.302268E-01  0.284676E-01  0.271400E-01  0.264793E-01
  0.264793E-01  0.271400E-01  0.284677E-01  0.302269E-01  0.318885E-01  0.329823E-01
  0.334535E-01  0.335584E-01  0.328424E-01  0.325412E-01  0.316356E-01  0.301962E-01
  0.284676E-01  0.268159E-01  0.255668E-01  0.249078E-01  0.249079E-01  0.255668E-01
  0.268159E-01  0.284677E-01  0.301962E-01  0.316356E-01  0.325412E-01  0.328424E-01
  0.314618E-01  0.311408E-01  0.302056E-01  0.287860E-01  0.271400E-01  0.255667E-01
  0.243256E-01  0.236324E-01  0.236324E-01  0.243256E-01  0.255668E-01  0.271400E-01
  0.287860E-01  0.302056E-01  0.311408E-01  0.314618E-01  0.306125E-01  0.303166E-01
  0.294413E-01  0.280848E-01  0.264793E-01  0.249078E-01  0.236324E-01  0.229025E-01
  0.229025E-01  0.236324E-01  0.249079E-01  0.264793E-01  0.280848E-01  0.294413E-01
  0.303167E-01  0.306125E-01  0.306125E-01  0.303166E-01  0.294413E-01  0.280848E-01
  0.264793E-01  0.249078E-01  0.236324E-01  0.229025E-01  0.229025E-01  0.236324E-01
  0.249078E-01  0.264793E-01  0.280848E-01  0.294413E-01  0.303167E-01  0.306125E-01
  0.314618E-01  0.311408E-01  0.302056E-01  0.287860E-01  0.271399E-01  0.255667E-01
  0.243255E-01  0.236324E-01  0.236324E-01  0.243255E-01  0.255668E-01  0.271400E-01
  0.287860E-01  0.302056E-01  0.311408E-01  0.314618E-01  0.328424E-01  0.325412E-01
  0.316355E-01  0.301962E-01  0.284676E-01  0.268159E-01  0.255667E-01  0.249078E-01
  0.249078E-01  0.255667E-01  0.268159E-01  0.284676E-01  0.301962E-01  0.316355E-01
  0.325412E-01  0.328424E-01  0.335584E-01  0.334535E-01  0.329822E-01  0.318885E-01
  0.302268E-01  0.284676E-01  0.271399E-01  0.264793E-01  0.264793E-01  0.271400E-01
  0.284676E-01  0.302268E-01  0.318885E-01  0.329822E-01  0.334535E-01  0.335584E-01
  0.320653E-01  0.324174E-01  0.330333E-01  0.330034E-01  0.318885E-01  0.301962E-01
  0.287860E-01  0.280848E-01  0.280848E-01  0.287860E-01  0.301962E-01  0.318885E-01
  0.330034E-01  0.330333E-01  0.324174E-01  0.320653E-01  0.283397E-01  0.292897E-01
  0.314115E-01  0.330333E-01  0.329822E-01  0.316355E-01  0.302056E-01  0.294413E-01
  0.294413E-01  0.302056E-01  0.316355E-01  0.329822E-01  0.330333E-01  0.314115E-01
  0.292897E-01  0.283397E-01  0.244862E-01  0.259090E-01  0.292897E-01  0.324174E-01
  0.334535E-01  0.325412E-01  0.311408E-01  0.303166E-01  0.303166E-01  0.311408E-01
  0.325412E-01  0.334535E-01  0.324174E-01  0.292897E-01  0.259090E-01  0.244862E-01
  0.228930E-01  0.244862E-01  0.283397E-01  0.320653E-01  0.335584E-01  0.328424E-01
  0.314618E-01  0.306125E-01  0.306125E-01  0.314618E-01  0.328424E-01  0.335584E-01
  0.320653E-01  0.283397E-01  0.244862E-01  0.228930E-01  0.290244E-01  0.296848E-01
  0.311334E-01  0.322086E-01  0.321698E-01  0.313247E-01  0.304722E-01  0.300450E-01
  0.300450E-01  0.304722E-01  0.313248E-01  0.321698E-01  0.322086E-01  0.311334E-01
  0.296848E-01  0.290244E-01  0.296848E-01  0.302575E-01  0.314831E-01  0.323087E-01
  0.321035E-01  0.312014E-01  0.303527E-01  0.299385E-01  0.299385E-01  0.303527E-01
  0.312014E-01  0.321035E-01  0.323087E-01  0.314831E-01  0.302575E-01  0.296848E-01
  0.311334E-01  0.314831E-01  0.321578E-01  0.323987E-01  0.318358E-01  0.308336E-01
  0.300059E-01  0.296191E-01  0.296191E-01  0.300060E-01  0.308336E-01  0.318358E-01
  0.323988E-01  0.321578E-01  0.314831E-01  0.311334E-01  0.322086E-01  0.323087E-01
  0.323987E-01  0.320865E-01  0.312611E-01  0.302467E-01  0.294697E-01  0.291010E-01
  0.291010E-01  0.294697E-01  0.302467E-01  0.312611E-01  0.320865E-01  0.323988E-01
  0.323087E-01  0.322086E-01  0.321698E-01  0.321035E-01  0.318358E-01  0.312611E-01
  0.304141E-01  0.295090E-01  0.287966E-01  0.284219E-01  0.284219E-01  0.287966E-01
  0.295090E-01  0.304141E-01  0.312611E-01  0.318358E-01  0.321035E-01  0.321698E-01
  0.313248E-01  0.312014E-01  0.308336E-01  0.302467E-01  0.295090E-01  0.287278E-01
  0.280485E-01  0.276434E-01  0.276434E-01  0.280485E-01  0.287278E-01  0.295090E-01
  0.302467E-01  0.308336E-01  0.312014E-01  0.313248E-01  0.304722E-01  0.303527E-01
  0.300059E-01  0.294696E-01  0.287966E-01  0.280485E-01  0.273459E-01  0.268998E-01
  0.268998E-01  0.273459E-01  0.280485E-01  0.287966E-01  0.294697E-01  0.300060E-01
  0.303527E-01  0.304722E-01  0.300450E-01  0.299385E-01  0.296190E-01  0.291010E-01
  0.284219E-01  0.276434E-01  0.268998E-01  0.264242E-01  0.264242E-01  0.268998E-01
  0.276434E-01  0.284219E-01  0.291010E-01  0.296190E-01  0.299385E-01  0.300450E-01
  0.300450E-01  0.299385E-01  0.296190E-01  0.291010E-01  0.284219E-01  0.276433E-01
  0.268998E-01  0.264242E-01  0.264242E-01  0.268998E-01  0.276434E-01  0.284219E-01
  0.291010E-01  0.296190E-01  0.299385E-01  0.300450E-01  0.304722E-01  0.303527E-01
  0.300059E-01  0.294696E-01  0.287966E-01  0.280484E-01  0.273459E-01  0.268998E-01
  0.268998E-01  0.273459E-01  0.280485E-01  0.287966E-01  0.294696E-01  0.300059E-01
  0.303527E-01  0.304722E-01  0.313247E-01  0.312013E-01  0.308336E-01  0.302467E-01
  0.295089E-01  0.287278E-01  0.280484E-01  0.276433E-01  0.276433E-01  0.280484E-01
  0.287278E-01  0.295090E-01  0.302467E-01  0.308336E-01  0.312013E-01  0.313247E-01
  0.321698E-01  0.321034E-01  0.318358E-01  0.312610E-01  0.304140E-01  0.295089E-01
  0.287965E-01  0.284218E-01  0.284219E-01  0.287966E-01  0.295090E-01  0.304141E-01
  0.312610E-01  0.318358E-01  0.321034E-01  0.321698E-01  0.322086E-01  0.323086E-01
  0.323987E-01  0.320865E-01  0.312610E-01  0.302467E-01  0.294696E-01  0.291010E-01
  0.291010E-01  0.294696E-01  0.302467E-01  0.312610E-01  0.320865E-01  0.323987E-01
  0.323086E-01  0.322086E-01  0.311334E-01  0.314831E-01  0.321578E-01  0.323987E-01
  0.318358E-01  0.308336E-01  0.300059E-01  0.296190E-01  0.296190E-01  0.300059E-01
  0.308336E-01  0.318358E-01  0.323987E-01  0.321578E-01  0.314831E-01  0.311334E-01
  0.296848E-01  0.302575E-01  0.314831E-01  0.323087E-01  0.321034E-01  0.312013E-01
  0.303527E-01  0.299385E-01  0.299385E-01  0.303527E-01  0.312014E-01  0.321035E-01
  0.323087E-01  0.314831E-01  0.302574E-01  0.296848E-01  0.290244E-01  0.296848E-01
  0.311334E-01  0.322086E-01  0.321698E-01  0.313247E-01  0.304722E-01  0.300450E-01
  0.300450E-01  0.304722E-01  0.313248E-01  0.321698E-01  0.322086E-01  0.311334E-01
  0.296848E-01  0.290244E-01  0.289915E-01  0.292352E-01  0.297687E-01  0.301921E-01
  0.302834E-01  0.301493E-01  0.300113E-01  0.299577E-01  0.299577E-01  0.300113E-01
  0.301493E-01  0.302834E-01  0.301922E-01  0.297687E-01  0.292352E-01  0.289915E-01
  0.292352E-01  0.294583E-01  0.299386E-01  0.303011E-01  0.303510E-01  0.302041E-01
  0.300711E-01  0.300246E-01  0.300246E-01  0.300711E-01  0.302041E-01  0.303510E-01
  0.303011E-01  0.299386E-01  0.294583E-01  0.292352E-01  0.297688E-01  0.299386E-01
  0.302944E-01  0.305405E-01  0.305402E-01  0.304032E-01  0.302969E-01  0.302656E-01
  0.302656E-01  0.302969E-01  0.304032E-01  0.305402E-01  0.305405E-01  0.302944E-01
  0.299386E-01  0.297688E-01  0.301922E-01  0.303011E-01  0.305405E-01  0.307374E-01
  0.307951E-01  0.307491E-01  0.306856E-01  0.306519E-01  0.306519E-01  0.306856E-01
  0.307491E-01  0.307952E-01  0.307374E-01  0.305405E-01  0.303011E-01  0.301922E-01
  0.302834E-01  0.303510E-01  0.305402E-01  0.307951E-01  0.310084E-01  0.310788E-01
  0.310057E-01  0.309069E-01  0.309069E-01  0.310057E-01  0.310788E-01  0.310084E-01
  0.307952E-01  0.305402E-01  0.303510E-01  0.302834E-01  0.301493E-01  0.302041E-01
  0.304032E-01  0.307491E-01  0.310788E-01  0.311568E-01  0.309452E-01  0.306962E-01
  0.306962E-01  0.309452E-01  0.311568E-01  0.310788E-01  0.307491E-01  0.304032E-01
  0.302041E-01  0.301493E-01  0.300113E-01  0.300711E-01  0.302968E-01  0.306856E-01
  0.310057E-01  0.309452E-01  0.304958E-01  0.300590E-01  0.300590E-01  0.304959E-01
  0.309452E-01  0.310057E-01  0.306856E-01  0.302969E-01  0.300711E-01  0.300113E-01
  0.299577E-01  0.300246E-01  0.302656E-01  0.306519E-01  0.309068E-01  0.306962E-01
  0.300589E-01  0.294920E-01  0.294920E-01  0.300590E-01  0.306962E-01  0.309068E-01
  0.306519E-01  0.302656E-01  0.300246E-01  0.299577E-01  0.299577E-01  0.300246E-01
  0.302656E-01  0.306519E-01  0.309068E-01  0.306962E-01  0.300589E-01  0.294920E-01
  0.294920E-01  0.300589E-01  0.306962E-01  0.309068E-01  0.306519E-01  0.302656E-01
  0.300246E-01  0.299577E-01  0.300113E-01  0.300711E-01  0.302968E-01  0.306856E-01
  0.310057E-01  0.309451E-01  0.304958E-01  0.300589E-01  0.300589E-01  0.304958E-01
  0.309451E-01  0.310057E-01  0.306856E-01  0.302968E-01  0.300711E-01  0.300113E-01
  0.301493E-01  0.302041E-01  0.304031E-01  0.307491E-01  0.310787E-01  0.311567E-01
  0.309451E-01  0.306962E-01  0.306962E-01  0.309451E-01  0.311567E-01  0.310787E-01
  0.307491E-01  0.304031E-01  0.302041E-01  0.301493E-01  0.302834E-01  0.303509E-01
  0.305402E-01  0.307951E-01  0.310083E-01  0.310787E-01  0.310057E-01  0.309068E-01
  0.309068E-01  0.310057E-01  0.310787E-01  0.310084E-01  0.307951E-01  0.305402E-01
  0.303509E-01  0.302834E-01  0.301921E-01  0.303011E-01  0.305405E-01  0.307373E-01
  0.307951E-01  0.307491E-01  0.306856E-01  0.306519E-01  0.306519E-01  0.306856E-01
  0.307491E-01  0.307951E-01  0.307373E-01  0.305405E-01  0.303011E-01  0.301921E-01
  0.297687E-01  0.299386E-01  0.302944E-01  0.305405E-01  0.305402E-01  0.304031E-01
  0.302968E-01  0.302656E-01  0.302656E-01  0.302968E-01  0.304031E-01  0.305402E-01
  0.305405E-01  0.302944E-01  0.299386E-01  0.297687E-01  0.292352E-01  0.294583E-01
  0.299386E-01  0.303011E-01  0.303509E-01  0.302041E-01  0.300711E-01  0.300246E-01
  0.300246E-01  0.300711E-01  0.302041E-01  0.303510E-01  0.303011E-01  0.299386E-01
  0.294583E-01  0.292352E-01  0.289915E-01  0.292352E-01  0.297687E-01  0.301921E-01
  0.302834E-01  0.301493E-01  0.300113E-01  0.299577E-01  0.299577E-01  0.300113E-01
  0.301493E-01  0.302834E-01  0.301922E-01  0.297687E-01  0.292352E-01  0.289915E-01
  0.259740E-01  0.262307E-01  0.269021E-01  0.277796E-01  0.286757E-01  0.294489E-01
  0.299922E-01  0.302598E-01  0.302598E-01  0.299922E-01  0.294489E-01  0.286757E-01
  0.277796E-01  0.269021E-01  0.262307E-01  0.259740E-01  0.262307E-01  0.264831E-01
  0.271433E-01  0.280082E-01  0.288986E-01  0.296808E-01  0.302454E-01  0.305318E-01
  0.305318E-01  0.302454E-01  0.296808E-01  0.288986E-01  0.280082E-01  0.271433E-01
  0.264831E-01  0.262307E-01  0.269022E-01  0.271433E-01  0.277878E-01  0.286622E-01
  0.295942E-01  0.304343E-01  0.310533E-01  0.313730E-01  0.313730E-01  0.310533E-01
  0.304343E-01  0.295942E-01  0.286622E-01  0.277878E-01  0.271433E-01  0.269022E-01
  0.277797E-01  0.280082E-01  0.286622E-01  0.296297E-01  0.307029E-01  0.316301E-01
  0.322407E-01  0.325173E-01  0.325173E-01  0.322407E-01  0.316301E-01  0.307029E-01
  0.296297E-01  0.286622E-01  0.280082E-01  0.277797E-01  0.286757E-01  0.288986E-01
  0.295942E-01  0.307029E-01  0.319016E-01  0.327501E-01  0.330712E-01  0.330826E-01
  0.330826E-01  0.330712E-01  0.327501E-01  0.319016E-01  0.307029E-01  0.295942E-01
  0.288986E-01  0.286757E-01  0.294489E-01  0.296808E-01  0.304343E-01  0.316301E-01
  0.327501E-01  0.331513E-01  0.327655E-01  0.322361E-01  0.322361E-01  0.327655E-01
  0.331513E-01  0.327501E-01  0.316301E-01  0.304343E-01  0.296808E-01  0.294489E-01
  0.299922E-01  0.302454E-01  0.310533E-01  0.322407E-01  0.330712E-01  0.327655E-01
  0.314694E-01  0.303037E-01  0.303038E-01  0.314695E-01  0.327655E-01  0.330712E-01
  0.322407E-01  0.310533E-01  0.302454E-01  0.299922E-01  0.302598E-01  0.305318E-01
  0.313730E-01  0.325173E-01  0.330826E-01  0.322360E-01  0.303037E-01  0.287163E-01
  0.287163E-01  0.303038E-01  0.322361E-01  0.330826E-01  0.325173E-01  0.313730E-01
  0.305318E-01  0.302598E-01  0.302598E-01  0.305318E-01  0.313730E-01  0.325173E-01
  0.330826E-01  0.322360E-01  0.303037E-01  0.287163E-01  0.287163E-01  0.303038E-01
  0.322361E-01  0.330826E-01  0.325173E-01  0.313730E-01  0.305318E-01  0.302598E-01
  0.299921E-01  0.302454E-01  0.310532E-01  0.322406E-01  0.330712E-01  0.327654E-01
  0.314694E-01  0.303037E-01  0.303038E-01  0.314695E-01  0.327655E-01  0.330712E-01
  0.322406E-01  0.310532E-01  0.302454E-01  0.299921E-01  0.294489E-01  0.296807E-01
  0.304342E-01  0.316300E-01  0.327501E-01  0.331513E-01  0.327654E-01  0.322360E-01
  0.322360E-01  0.327655E-01  0.331513E-01  0.327501E-01  0.316300E-01  0.304342E-01
  0.296807E-01  0.294489E-01  0.286756E-01  0.288986E-01  0.295941E-01  0.307028E-01
  0.319016E-01  0.327501E-01  0.330712E-01  0.330826E-01  0.330826E-01  0.330712E-01
  0.327501E-01  0.319016E-01  0.307028E-01  0.295941E-01  0.288986E-01  0.286756E-01
  0.277796E-01  0.280082E-01  0.286621E-01  0.296297E-01  0.307028E-01  0.316300E-01
  0.322406E-01  0.325173E-01  0.325173E-01  0.322406E-01  0.316300E-01  0.307028E-01
  0.296297E-01  0.286621E-01  0.280082E-01  0.277796E-01  0.269021E-01  0.271433E-01
  0.277878E-01  0.286621E-01  0.295941E-01  0.304342E-01  0.310532E-01  0.313730E-01
  0.313730E-01  0.310532E-01  0.304342E-01  0.295941E-01  0.286621E-01  0.277878E-01
  0.271433E-01  0.269021E-01  0.262307E-01  0.264831E-01  0.271433E-01  0.280082E-01
  0.288986E-01  0.296807E-01  0.302454E-01  0.305318E-01  0.305318E-01  0.302454E-01
  0.296807E-01  0.288986E-01  0.280082E-01  0.271433E-01  0.264831E-01  0.262307E-01
  0.259740E-01  0.262307E-01  0.269021E-01  0.277796E-01  0.286757E-01  0.294489E-01
  0.299922E-01  0.302598E-01  0.302598E-01  0.299922E-01  0.294489E-01  0.286757E-01
  0.277796E-01  0.269021E-01  0.262307E-01  0.259740E-01  0.229122E-01  0.233005E-01
  0.243565E-01  0.258411E-01  0.274977E-01  0.290499E-01  0.302175E-01  0.308239E-01
  0.308239E-01  0.302175E-01  0.290499E-01  0.274976E-01  0.258411E-01  0.243565E-01
  0.233005E-01  0.229122E-01  0.233005E-01  0.236766E-01  0.247097E-01  0.261861E-01
  0.278625E-01  0.294595E-01  0.306809E-01  0.313250E-01  0.313250E-01  0.306809E-01
  0.294595E-01  0.278625E-01  0.261861E-01  0.247097E-01  0.236766E-01  0.233005E-01
  0.243565E-01  0.247098E-01  0.257160E-01  0.272261E-01  0.289977E-01  0.306990E-01
  0.319944E-01  0.326746E-01  0.326746E-01  0.319944E-01  0.306989E-01  0.289977E-01
  0.272261E-01  0.257160E-01  0.247097E-01  0.243565E-01  0.258411E-01  0.261861E-01
  0.272261E-01  0.288673E-01  0.307657E-01  0.324225E-01  0.334973E-01  0.339726E-01
  0.339726E-01  0.334973E-01  0.324225E-01  0.307657E-01  0.288673E-01  0.272261E-01
  0.261861E-01  0.258411E-01  0.274977E-01  0.278625E-01  0.289977E-01  0.307657E-01
  0.325456E-01  0.335730E-01  0.336776E-01  0.334222E-01  0.334222E-01  0.336776E-01
  0.335730E-01  0.325456E-01  0.307657E-01  0.289977E-01  0.278625E-01  0.274977E-01
  0.290499E-01  0.294595E-01  0.306990E-01  0.324225E-01  0.335730E-01  0.331487E-01
  0.314453E-01  0.299549E-01  0.299549E-01  0.314453E-01  0.331487E-01  0.335730E-01
  0.324225E-01  0.306990E-01  0.294595E-01  0.290499E-01  0.302175E-01  0.306809E-01
  0.319944E-01  0.334973E-01  0.336776E-01  0.314453E-01  0.277522E-01  0.250128E-01
  0.250128E-01  0.277522E-01  0.314454E-01  0.336776E-01  0.334973E-01  0.319944E-01
  0.306809E-01  0.302175E-01  0.308239E-01  0.313250E-01  0.326746E-01  0.339726E-01
  0.334221E-01  0.299549E-01  0.250128E-01  0.215457E-01  0.215457E-01  0.250128E-01
  0.299550E-01  0.334222E-01  0.339726E-01  0.326746E-01  0.313250E-01  0.308239E-01
  0.308239E-01  0.313250E-01  0.326746E-01  0.339726E-01  0.334221E-01  0.299549E-01
  0.250128E-01  0.215457E-01  0.215457E-01  0.250128E-01  0.299550E-01  0.334222E-01
  0.339726E-01  0.326746E-01  0.313250E-01  0.308239E-01  0.302175E-01  0.306808E-01
  0.319944E-01  0.334972E-01  0.336776E-01  0.314453E-01  0.277522E-01  0.250128E-01
  0.250128E-01  0.277522E-01  0.314454E-01  0.336776E-01  0.334972E-01  0.319944E-01
  0.306808E-01  0.302175E-01  0.290499E-01  0.294594E-01  0.306989E-01  0.324224E-01
  0.335730E-01  0.331487E-01  0.314453E-01  0.299549E-01  0.299550E-01  0.314453E-01
  0.331487E-01  0.335730E-01  0.324224E-01  0.306989E-01  0.294594E-01  0.290499E-01
  0.274976E-01  0.278625E-01  0.289977E-01  0.307656E-01  0.325455E-01  0.335730E-01
  0.336776E-01  0.334221E-01  0.334221E-01  0.336776E-01  0.335730E-01  0.325455E-01
  0.307656E-01  0.289977E-01  0.278625E-01  0.274976E-01  0.258411E-01  0.261860E-01
  0.272261E-01  0.288673E-01  0.307656E-01  0.324224E-01  0.334972E-01  0.339726E-01
  0.339726E-01  0.334972E-01  0.324224E-01  0.307656E-01  0.288673E-01  0.272261E-01
  0.261860E-01  0.258411E-01  0.243565E-01  0.247097E-01  0.257160E-01  0.272261E-01
  0.289977E-01  0.306989E-01  0.319944E-01  0.326746E-01  0.326746E-01  0.319944E-01
  0.306989E-01  0.289977E-01  0.272261E-01  0.257160E-01  0.247097E-01  0.243565E-01
  0.233005E-01  0.236766E-01  0.247097E-01  0.261860E-01  0.278625E-01  0.294594E-01
  0.306808E-01  0.313250E-01  0.313250E-01  0.306808E-01  0.294594E-01  0.278625E-01
  0.261860E-01  0.247097E-01  0.236766E-01  0.233005E-01  0.229122E-01  0.233005E-01
  0.243565E-01  0.258411E-01  0.274977E-01  0.290499E-01  0.302175E-01  0.308239E-01
  0.308239E-01  0.302175E-01  0.290499E-01  0.274976E-01  0.258411E-01  0.243565E-01
  0.233005E-01  0.229122E-01  0.206430E-01  0.211305E-01  0.224681E-01  0.243822E-01
  0.265842E-01  0.287530E-01  0.304988E-01  0.314675E-01  0.314675E-01  0.304988E-01
  0.287530E-01  0.265842E-01  0.243822E-01  0.224681E-01  0.211305E-01  0.206430E-01
  0.211305E-01  0.215960E-01  0.228969E-01  0.248111E-01  0.270670E-01  0.293184E-01