 CRYSTAL
 PRIMVEC
    2.794539329    0.000000000    0.000000000
    0.000000000    2.794539329    0.000000000
    0.000000000    0.000000000   23.357452760
 PRIMCOORD
           7           1
Al       -0.000000107   -0.000000014   -0.617504327
Al        1.397269620    1.397269532    1.366067761
Al        0.000000099   -0.000000021    3.300515612
Al        0.000000000    0.000000000    5.928112170
Al       -0.000000183    0.000000088    8.555701950
Al        1.397269660    1.397269729   10.490146178
Al       -0.000000009    0.000000020   12.473726711
BEGIN_BLOCK_DATAGRID_3D
3D_PWSCF
DATAGRID_3D_UNKNOWN
          16          16         126
  0.000000  0.000000  0.000000
  2.794539  0.000000  0.000000
  0.000000  2.794539  0.000000
  0.000000  0.000000 23.357453
  0.203680E-01  0.222843E-01  0.270457E-01  0.319251E-01  0.342791E-01  0.338915E-01
  0.324954E-01  0.315666E-01  0.315666E-01  0.324954E-01  0.338915E-01  0.342791E-01
  0.319251E-01  0.270457E-01  0.222843E-01  0.203680E-01  0.222843E-01  0.240191E-01
  0.282542E-01  0.324316E-01  0.342221E-01  0.335775E-01  0.321460E-01  0.312445E-01
  0.312445E-01  0.321460E-01  0.335775E-01  0.342221E-01  0.324316E-01  0.282542E-01
  0.240191E-01  0.222843E-01  0.270457E-01  0.282542E-01  0.310444E-01  0.334196E-01
  0.338494E-01  0.326246E-01  0.311298E-01  0.302955E-01  0.302955E-01  0.311298E-01
  0.326246E-01  0.338494E-01  0.334196E-01  0.310444E-01  0.282542E-01  0.270457E-01
  0.319251E-01  0.324316E-01  0.334196E-01  0.337547E-01  0.328092E-01  0.310929E-01
  0.295938E-01  0.288359E-01  0.288359E-01  0.295938E-01  0.310929E-01  0.328092E-01
  0.337547E-01  0.334196E-01  0.324316E-01  0.319251E-01  0.342791E-01  0.342221E-01
  0.338494E-01  0.328092E-01  0.311034E-01  0.292412E-01  0.278253E-01  0.271237E-01
  0.271237E-01  0.278253E-01  0.292412E-01  0.311034E-01  0.328092E-01  0.338494E-01
  0.342221E-01  0.342791E-01  0.338915E-01  0.335775E-01  0.326246E-01  0.310929E-01
  0.292412E-01  0.274745E-01  0.261511E-01  0.254613E-01  0.254613E-01  0.261511E-01
  0.274745E-01  0.292412E-01  0.310929E-01  0.326246E-01  0.335775E-01  0.338915E-01
  0.324954E-01  0.321460E-01  0.311298E-01  0.295938E-01  0.278253E-01  0.261511E-01
  0.248435E-01  0.241188E-01  0.241188E-01  0.248435E-01  0.261511E-01  0.278253E-01
  0.295938E-01  0.311298E-01  0.321460E-01  0.324954E-01  0.315666E-01  0.312445E-01
  0.302955E-01  0.288359E-01  0.271237E-01  0.254613E-01  0.241188E-01  0.233518E-01
  0.233518E-01  0.241188E-01  0.254613E-01  0.271237E-01  0.288359E-01  0.302955E-01
  0.312445E-01  0.315666E-01  0.315666E-01  0.312445E-01  0.302955E-01  0.288359E-01
  0.271237E-01  0.254613E-01  0.241188E-01  0.233518E-01  0.233518E-01  0.241188E-01
  0.254613E-01  0.271237E-01  0.288359E-01  0.302955E-01  0.312445E-01  0.315666E-01
  0.324954E-01  0.321460E-01  0.311298E-01  0.295938E-01  0.278253E-01  0.261511E-01
  0.248435E-01  0.241188E-01  0.241188E-01  0.248435E-01  0.261511E-01  0.278253E-01
  0.295938E-01  0.311298E-01  0.321460E-01  0.324954E-01  0.338915E-01  0.335775E-01
  0.326246E-01  0.310929E-01  0.292412E-01  0.274745E-01  0.261511E-01  0.254613E-01
  0.254613E-01  0.261511E-01  0.274745E-01  0.292412E-01  0.310929E-01  0.326246E-01
  0.335775E-01  0.338915E-01  0.342791E-01  0.342221E-01  0.338494E-01  0.328092E-01
  0.311034E-01  0.292412E-01  0.278253E-01  0.271237E-01  0.271237E-01  0.278253E-01
  0.292412E-01  0.311034E-01  0.328092E-01  0.338494E-01  0.342221E-01  0.342791E-01
  0.319251E-01  0.324316E-01  0.334196E-01  0.337547E-01  0.328092E-01  0.310929E-01
  0.295938E-01  0.288359E-01  0.288359E-01  0.295938E-01  0.310929E-01  0.328092E-01
  0.337547E-01  0.334196E-01  0.324316E-01  0.319251E-01  0.270457E-01  0.282542E-01
  0.310444E-01  0.334196E-01  0.338494E-01  0.326246E-01  0.311298E-01  0.302955E-01
  0.302955E-01  0.311298E-01  0.326246E-01  0.338494E-01  0.334196E-01  0.310444E-01
  0.282542E-01  0.270457E-01  0.222843E-01  0.240191E-01  0.282542E-01  0.324316E-01
  0.342221E-01  0.335775E-01  0.321460E-01  0.312445E-01  0.312445E-01  0.321460E-01
  0.335775E-01  0.342221E-01  0.324316E-01  0.282542E-01  0.240191E-01  0.222843E-01
  0.203680E-01  0.222843E-01  0.270457E-01  0.319251E-01  0.342791E-01  0.338915E-01
  0.324954E-01  0.315666E-01  0.315666E-01  0.324954E-01  0.338915E-01  0.342791E-01
  0.319251E-01  0.270457E-01  0.222843E-01  0.203680E-01  0.279155E-01  0.288309E-01
  0.309115E-01  0.326551E-01  0.330103E-01  0.322467E-01  0.313331E-01  0.308512E-01
  0.308512E-01  0.313331E-01  0.322467E-01  0.330103E-01  0.326551E-01  0.309115E-01
  0.288309E-01  0.279155E-01  0.288309E-01  0.296346E-01  0.314264E-01  0.328377E-01
  0.329626E-01  0.321135E-01  0.312004E-01  0.307351E-01  0.307351E-01  0.312004E-01
  0.321135E-01  0.329626E-01  0.328377E-01  0.314264E-01  0.296346E-01  0.288309E-01
  0.309115E-01  0.314264E-01  0.324929E-01  0.331106E-01  0.327239E-01  0.317096E-01
  0.308115E-01  0.303828E-01  0.303828E-01  0.308115E-01  0.317096E-01  0.327239E-01
  0.331106E-01  0.324929E-01  0.314264E-01  0.309115E-01  0.326551E-01  0.328377E-01
  0.331106E-01  0.329427E-01  0.321375E-01  0.310555E-01  0.302096E-01  0.298107E-01
  0.298107E-01  0.302096E-01  0.310555E-01  0.321375E-01  0.329427E-01  0.331106E-01
  0.328377E-01  0.326551E-01  0.330103E-01  0.329626E-01  0.327239E-01  0.321375E-01
  0.312241E-01  0.302362E-01  0.294699E-01  0.290769E-01  0.290769E-01  0.294699E-01
  0.302362E-01  0.312241E-01  0.321375E-01  0.327239E-01  0.329626E-01  0.330103E-01
  0.322467E-01  0.321135E-01  0.317096E-01  0.310555E-01  0.302362E-01  0.293896E-01
  0.286774E-01  0.282636E-01  0.282636E-01  0.286774E-01  0.293896E-01  0.302362E-01
  0.310555E-01  0.317096E-01  0.321135E-01  0.322467E-01  0.313331E-01  0.312004E-01
  0.308115E-01  0.302096E-01  0.294699E-01  0.286774E-01  0.279562E-01  0.275058E-01
  0.275058E-01  0.279562E-01  0.286774E-01  0.294699E-01  0.302096E-01  0.308115E-01
  0.312004E-01  0.313331E-01  0.308512E-01  0.307351E-01  0.303828E-01  0.298107E-01
  0.290769E-01  0.282636E-01  0.275057E-01  0.270260E-01  0.270260E-01  0.275058E-01
  0.282636E-01  0.290769E-01  0.298107E-01  0.303828E-01  0.307351E-01  0.308512E-01
  0.308512E-01  0.307351E-01  0.303828E-01  0.298107E-01  0.290769E-01  0.282636E-01
  0.275057E-01  0.270260E-01  0.270260E-01  0.275058E-01  0.282636E-01  0.290769E-01
  0.298107E-01  0.303828E-01  0.307351E-01  0.308512E-01  0.313331E-01  0.312004E-01
  0.308115E-01  0.302096E-01  0.294699E-01  0.286774E-01  0.279562E-01  0.275057E-01
  0.275057E-01  0.279562E-01  0.286774E-01  0.294699E-01  0.302096E-01  0.308115E-01
  0.312004E-01  0.313331E-01  0.322467E-01  0.321135E-01  0.317096E-01  0.310555E-01
  0.302362E-01  0.293896E-01  0.286774E-01  0.282636E-01  0.282636E-01  0.286774E-01
  0.293896E-01  0.302362E-01  0.310555E-01  0.317096E-01  0.321135E-01  0.322467E-01
  0.330102E-01  0.329626E-01  0.327239E-01  0.321375E-01  0.312241E-01  0.302362E-01
  0.294699E-01  0.290769E-01  0.290769E-01  0.294699E-01  0.302362E-01  0.312241E-01
  0.321375E-01  0.327239E-01  0.329626E-01  0.330102E-01  0.326551E-01  0.328377E-01
  0.331106E-01  0.329427E-01  0.321375E-01  0.310555E-01  0.302096E-01  0.298107E-01
  0.298107E-01  0.302096E-01  0.310555E-01  0.321375E-01  0.329427E-01  0.331106E-01
  0.328377E-01  0.326551E-01  0.309115E-01  0.314264E-01  0.324929E-01  0.331106E-01
  0.327239E-01  0.317096E-01  0.308115E-01  0.303828E-01  0.303828E-01  0.308115E-01
  0.317096E-01  0.327239E-01  0.331106E-01  0.324929E-01  0.314264E-01  0.309115E-01
  0.288309E-01  0.296346E-01  0.314264E-01  0.328377E-01  0.329626E-01  0.321135E-01
  0.312004E-01  0.307351E-01  0.307351E-01  0.312004E-01  0.321135E-01  0.329626E-01
  0.328377E-01  0.314264E-01  0.296346E-01  0.288309E-01  0.279155E-01  0.288309E-01
  0.309115E-01  0.326551E-01  0.330103E-01  0.322467E-01  0.313331E-01  0.308512E-01
  0.308512E-01  0.313331E-01  0.322467E-01  0.330103E-01  0.326551E-01  0.309115E-01
  0.288309E-01  0.279155E-01  0.290039E-01  0.293566E-01  0.301405E-01  0.307891E-01
  0.309675E-01  0.308083E-01  0.306257E-01  0.305539E-01  0.305539E-01  0.306257E-01
  0.308083E-01  0.309675E-01  0.307891E-01  0.301405E-01  0.293566E-01  0.290039E-01
  0.293566E-01  0.296760E-01  0.303749E-01  0.309271E-01  0.310401E-01  0.308596E-01
  0.306824E-01  0.306197E-01  0.306197E-01  0.306824E-01  0.308596E-01  0.310401E-01
  0.309271E-01  0.303749E-01  0.296760E-01  0.293566E-01  0.301405E-01  0.303749E-01
  0.308708E-01  0.312221E-01  0.312314E-01  0.310440E-01  0.308958E-01  0.308528E-01
  0.308528E-01  0.308958E-01  0.310440E-01  0.312314E-01  0.312221E-01  0.308708E-01
  0.303749E-01  0.301405E-01  0.307891E-01  0.309271E-01  0.312221E-01  0.314412E-01
  0.314650E-01  0.313636E-01  0.312674E-01  0.312280E-01  0.312280E-01  0.312675E-01
  0.313637E-01  0.314650E-01  0.314412E-01  0.312221E-01  0.309271E-01  0.307891E-01
  0.309675E-01  0.310401E-01  0.312314E-01  0.314650E-01  0.316368E-01  0.316724E-01
  0.315897E-01  0.314961E-01  0.314961E-01  0.315897E-01  0.316724E-01  0.316368E-01
  0.314650E-01  0.312314E-01  0.310401E-01  0.309675E-01  0.308083E-01  0.308596E-01
  0.310440E-01  0.313636E-01  0.316724E-01  0.317546E-01  0.315698E-01  0.313453E-01
  0.313453E-01  0.315698E-01  0.317546E-01  0.316724E-01  0.313637E-01  0.310440E-01
  0.308596E-01  0.308083E-01  0.306257E-01  0.306824E-01  0.308958E-01  0.312674E-01
  0.315897E-01  0.315698E-01  0.311842E-01  0.307940E-01  0.307940E-01  0.311842E-01
  0.315698E-01  0.315897E-01  0.312675E-01  0.308958E-01  0.306824E-01  0.306257E-01
  0.305539E-01  0.306197E-01  0.308528E-01  0.312280E-01  0.314961E-01  0.313453E-01
  0.307940E-01  0.302885E-01  0.302885E-01  0.307940E-01  0.313453E-01  0.314961E-01
  0.312280E-01  0.308528E-01  0.306197E-01  0.305539E-01  0.305539E-01  0.306197E-01
  0.308528E-01  0.312280E-01  0.314961E-01  0.313453E-01  0.307940E-01  0.302885E-01
  0.302885E-01  0.307940E-01  0.313453E-01  0.314961E-01  0.312280E-01  0.308528E-01
  0.306197E-01  0.305539E-01  0.306257E-01  0.306824E-01  0.308958E-01  0.312674E-01
  0.315897E-01  0.315698E-01  0.311842E-01  0.307940E-01  0.307940E-01  0.311842E-01
  0.315698E-01  0.315897E-01  0.312674E-01  0.308958E-01  0.306824E-01  0.306257E-01
  0.308083E-01  0.308596E-01  0.310440E-01  0.313636E-01  0.316724E-01  0.317546E-01
  0.315698E-01  0.313453E-01  0.313453E-01  0.315698E-01  0.317546E-01  0.316724E-01
  0.313636E-01  0.310440E-01  0.308596E-01  0.308083E-01  0.309675E-01  0.310401E-01
  0.312314E-01  0.314650E-01  0.316368E-01  0.316724E-01  0.315897E-01  0.314961E-01
  0.314961E-01  0.315897E-01  0.316724E-01  0.316368E-01  0.314650E-01  0.312314E-01
  0.310401E-01  0.309675E-01  0.307891E-01  0.309271E-01  0.312221E-01  0.314412E-01
  0.314650E-01  0.313636E-01  0.312674E-01  0.312280E-01  0.312280E-01  0.312674E-01
  0.313636E-01  0.314650E-01  0.314412E-01  0.312221E-01  0.309271E-01  0.307891E-01
  0.301405E-01  0.303749E-01  0.308708E-01  0.312221E-01  0.312314E-01  0.310440E-01
  0.308958E-01  0.308528E-01  0.308528E-01  0.308958E-01  0.310440E-01  0.312314E-01
  0.312221E-01  0.308708E-01  0.303749E-01  0.301405E-01  0.293566E-01  0.296760E-01
  0.303749E-01  0.309271E-01  0.310401E-01  0.308596E-01  0.306824E-01  0.306197E-01
  0.306197E-01  0.306824E-01  0.308596E-01  0.310401E-01  0.309271E-01  0.303749E-01
  0.296760E-01  0.293566E-01  0.290039E-01  0.293566E-01  0.301405E-01  0.307891E-01
  0.309675E-01  0.308083E-01  0.306257E-01  0.305539E-01  0.305539E-01  0.306257E-01
  0.308083E-01  0.309675E-01  0.307891E-01  0.301405E-01  0.293566E-01  0.290039E-01
  0.262994E-01  0.265825E-01  0.273092E-01  0.282229E-01  0.291107E-01  0.298510E-01
  0.303704E-01  0.306321E-01  0.306321E-01  0.303704E-01  0.298510E-01  0.291107E-01
  0.282229E-01  0.273092E-01  0.265825E-01  0.262994E-01  0.265825E-01  0.268583E-01
  0.275665E-01  0.284589E-01  0.293352E-01  0.300824E-01  0.306237E-01  0.309049E-01
  0.309049E-01  0.306237E-01  0.300824E-01  0.293352E-01  0.284589E-01  0.275665E-01
  0.268583E-01  0.265825E-01  0.273092E-01  0.275665E-01  0.282406E-01  0.291234E-01
  0.300306E-01  0.308347E-01  0.314334E-01  0.317501E-01  0.317501E-01  0.314334E-01
  0.308347E-01  0.300306E-01  0.291234E-01  0.282406E-01  0.275665E-01  0.273092E-01
  0.282229E-01  0.284589E-01  0.291234E-01  0.300846E-01  0.311328E-01  0.320359E-01
  0.326393E-01  0.329199E-01  0.329199E-01  0.326393E-01  0.320359E-01  0.311328E-01
  0.300846E-01  0.291234E-01  0.284589E-01  0.282229E-01  0.291107E-01  0.293352E-01
  0.300306E-01  0.311328E-01  0.323271E-01  0.331875E-01  0.335366E-01  0.335720E-01
  0.335720E-01  0.335366E-01  0.331875E-01  0.323271E-01  0.311328E-01  0.300306E-01
  0.293352E-01  0.291107E-01  0.298510E-01  0.300824E-01  0.308347E-01  0.320359E-01
  0.331875E-01  0.336592E-01  0.333615E-01  0.328929E-01  0.328929E-01  0.333615E-01
  0.336592E-01  0.331875E-01  0.320359E-01  0.308347E-01  0.300824E-01  0.298510E-01
  0.303704E-01  0.306237E-01  0.314334E-01  0.326393E-01  0.335366E-01  0.333615E-01
  0.322196E-01  0.311567E-01  0.311567E-01  0.322196E-01  0.333615E-01  0.335366E-01
  0.326393E-01  0.314334E-01  0.306237E-01  0.303704E-01  0.306321E-01  0.309049E-01
  0.317501E-01  0.329199E-01  0.335720E-01  0.328928E-01  0.311567E-01  0.296993E-01
  0.296993E-01  0.311567E-01  0.328929E-01  0.335720E-01  0.329199E-01  0.317501E-01
  0.309049E-01  0.306321E-01  0.306321E-01  0.309049E-01  0.317501E-01  0.329199E-01
  0.335720E-01  0.328928E-01  0.311567E-01  0.296993E-01  0.296993E-01  0.311567E-01
  0.328929E-01  0.335720E-01  0.329199E-01  0.317501E-01  0.309049E-01  0.306321E-01
  0.303704E-01  0.306237E-01  0.314334E-01  0.326393E-01  0.335366E-01  0.333615E-01
  0.322196E-01  0.311567E-01  0.311567E-01  0.322196E-01  0.333615E-01  0.335366E-01
  0.326393E-01  0.314334E-01  0.306237E-01  0.303704E-01  0.298510E-01  0.300824E-01
  0.308347E-01  0.320359E-01  0.331875E-01  0.336591E-01  0.333615E-01  0.328928E-01
  0.328929E-01  0.333615E-01  0.336592E-01  0.331875E-01  0.320359E-01  0.308347E-01
  0.300824E-01  0.298510E-01  0.291107E-01  0.293352E-01  0.300306E-01  0.311328E-01
  0.323271E-01  0.331875E-01  0.335366E-01  0.335720E-01  0.335720E-01  0.335366E-01
  0.331875E-01  0.323271E-01  0.311328E-01  0.300306E-01  0.293352E-01  0.291107E-01
  0.282229E-01  0.284589E-01  0.291234E-01  0.300846E-01  0.311328E-01  0.320359E-01
  0.326393E-01  0.329199E-01  0.329199E-01  0.326393E-01  0.320359E-01  0.311328E-01
  0.300846E-01  0.291234E-01  0.284589E-01  0.282229E-01  0.273092E-01  0.275665E-01
  0.282406E-01  0.291234E-01  0.300306E-01  0.308347E-01  0.314334E-01  0.317501E-01
  0.317501E-01  0.314334E-01  0.308347E-01  0.300306E-01  0.291234E-01  0.282406E-01
  0.275665E-01  0.273092E-01  0.265825E-01  0.268583E-01  0.275665E-01  0.284589E-01
  0.293352E-01  0.300824E-01  0.306237E-01  0.309049E-01  0.309049E-01  0.306237E-01
  0.300824E-01  0.293352E-01  0.284589E-01  0.275665E-01  0.268583E-01  0.265825E-01
  0.262994E-01  0.265825E-01  0.273092E-01  0.282229E-01  0.291107E-01  0.298510E-01
  0.303704E-01  0.306321E-01  0.306321E-01  0.303704E-01  0.298510E-01  0.291107E-01
  0.282229E-01  0.273092E-01  0.265825E-01  0.262994E-01  0.232288E-01  0.236199E-01
  0.246797E-01  0.261591E-01  0.277937E-01  0.293076E-01  0.304320E-01  0.310091E-01
  0.310091E-01  0.304320E-01  0.293076E-01  0.277937E-01  0.261591E-01  0.246797E-01
  0.236199E-01  0.232288E-01  0.236199E-01  0.239986E-01  0.250344E-01  0.265033E-01
  0.281555E-01  0.297135E-01  0.308929E-01  0.315093E-01  0.315093E-01  0.308929E-01
  0.297135E-01  0.281555E-01  0.265033E-01  0.250344E-01  0.239986E-01  0.236199E-01
  0.246797E-01  0.250344E-01  0.260399E-01  0.275380E-01  0.292824E-01  0.309464E-01
  0.322060E-01  0.328641E-01  0.328641E-01  0.322060E-01  0.309464E-01  0.292824E-01
  0.275380E-01  0.260399E-01  0.250344E-01  0.246797E-01  0.261591E-01  0.265033E-01
  0.275380E-01  0.291647E-01  0.310405E-01  0.326748E-01  0.337344E-01  0.342030E-01
  0.342030E-01  0.337344E-01  0.326748E-01  0.310405E-01  0.291647E-01  0.275380E-01
  0.265033E-01  0.261591E-01  0.277937E-01  0.281555E-01  0.292824E-01  0.310405E-01
  0.328195E-01  0.338652E-01  0.340027E-01  0.337733E-01  0.337733E-01  0.340027E-01
  0.338652E-01  0.328195E-01  0.310405E-01  0.292824E-01  0.281555E-01  0.277937E-01
  0.293076E-01  0.297135E-01  0.309464E-01  0.326748E-01  0.338652E-01  0.335277E-01
  0.319315E-01  0.305146E-01  0.305146E-01  0.319315E-01  0.335277E-01  0.338652E-01
  0.326748E-01  0.309464E-01  0.297135E-01  0.293076E-01  0.304320E-01  0.308929E-01
  0.322060E-01  0.337344E-01  0.340027E-01  0.319315E-01  0.284187E-01  0.257943E-01
  0.257943E-01  0.284187E-01  0.319315E-01  0.340027E-01  0.337344E-01  0.322060E-01
  0.308929E-01  0.304320E-01  0.310091E-01  0.315093E-01  0.328641E-01  0.342030E-01
  0.337733E-01  0.305146E-01  0.257943E-01  0.224622E-01  0.224622E-01  0.257943E-01
  0.305146E-01  0.337733E-01  0.342030E-01  0.328641E-01  0.315093E-01  0.310091E-01
  0.310091E-01  0.315093E-01  0.328641E-01  0.342030E-01  0.337733E-01  0.305146E-01
  0.257943E-01  0.224622E-01  0.224622E-01  0.257943E-01  0.305146E-01  0.337733E-01
  0.342030E-01  0.328641E-01  0.315093E-01  0.310091E-01  0.304320E-01  0.308929E-01
  0.322060E-01  0.337344E-01  0.340027E-01  0.319315E-01  0.284187E-01  0.257943E-01
  0.257943E-01  0.284187E-01  0.319315E-01  0.340027E-01  0.337344E-01  0.322060E-01
  0.308929E-01  0.304320E-01  0.293076E-01  0.297135E-01  0.309464E-01  0.326748E-01
  0.338652E-01  0.335277E-01  0.319315E-01  0.305146E-01  0.305146E-01  0.319315E-01
  0.335277E-01  0.338652E-01  0.326748E-01  0.309464E-01  0.297135E-01  0.293076E-01
  0.277937E-01  0.281555E-01  0.292824E-01  0.310405E-01  0.328195E-01  0.338652E-01
  0.340027E-01  0.337733E-01  0.337733E-01  0.340027E-01  0.338652E-01  0.328195E-01
  0.310405E-01  0.292824E-01  0.281555E-01  0.277937E-01  0.261591E-01  0.265033E-01
  0.275380E-01  0.291646E-01  0.310405E-01  0.326748E-01  0.337344E-01  0.342030E-01
  0.342030E-01  0.337344E-01  0.326748E-01  0.310405E-01  0.291646E-01  0.275380E-01
  0.265033E-01  0.261591E-01  0.246797E-01  0.250344E-01  0.260399E-01  0.275380E-01
  0.292824E-01  0.309464E-01  0.322060E-01  0.328641E-01  0.328641E-01  0.322060E-01
  0.309464E-01  0.292824E-01  0.275380E-01  0.260399E-01  0.250344E-01  0.246797E-01
  0.236199E-01  0.239986E-01  0.250344E-01  0.265033E-01  0.281555E-01  0.297135E-01
  0.308929E-01  0.315093E-01  0.315093E-01  0.308929E-01  0.297135E-01  0.281555E-01
  0.265033E-01  0.250344E-01  0.239986E-01  0.236199E-01  0.232288E-01  0.236199E-01
  0.246797E-01  0.261591E-01  0.277937E-01  0.293076E-01  0.304320E-01  0.310091E-01
  0.310091E-01  0.304320E-01  0.293076E-01  0.277937E-01  0.261591E-01  0.246797E-01
  0.236199E-01  0.232288E-01  0.210318E-01  0.215179E-01  0.228484E-01  0.247428E-01
  0.269054E-01  0.290108E-01  0.306803E-01  0.315937E-01  0.315937E-01  0.306803E-01
  0.290108E-01  0.269054E-01  0.247428E-01  0.228484E-01  0.215179E-01  0.210318E-01
  0.215179E-01  0.219813E-01  0.232729E-01  0.251644E-01  0.273782E-01  0.295655E-01
  0.313126E-01  0.322725E-01  0.322725E-01  0.313126E-01  0.295655E-01  0.273782E-01
  0.251644E-01  0.232729E-01  0.219813E-01  0.215179E-01  0.228484E-01  0.232729E-01
  0.245188E-01  0.264634E-01  0.288128E-01  0.311080E-01  0.328784E-01  0.338196E-01
  0.338196E-01  0.328784E-01  0.311080E-01  0.288128E-01  0.264634E-01  0.245188E-01
  0.232729E-01  0.228484E-01  0.247428E-01  0.251644E-01  0.264634E-01  0.285408E-01
  0.309004E-01  0.328385E-01  0.339665E-01  0.344003E-01  0.344003E-01  0.339665E-01
  0.328385E-01  0.309004E-01  0.285408E-01  0.264634E-01  0.251644E-01  0.247428E-01
  0.269054E-01  0.273782E-01  0.288128E-01  0.309004E-01  0.326563E-01  0.330808E-01
  0.322693E-01  0.313606E-01  0.313606E-01  0.322693E-01  0.330808E-01  0.326563E-01
  0.309004E-01  0.288128E-01  0.273782E-01  0.269054E-01  0.290108E-01  0.295655E-01
  0.311080E-01  0.328385E-01  0.330808E-01  0.307391E-01  0.269432E-01  0.241953E-01
  0.241953E-01  0.269432E-01  0.307391E-01  0.330808E-01  0.328385E-01  0.311080E-01
  0.295655E-01  0.290108E-01  0.306803E-01  0.313126E-01  0.328784E-01  0.339665E-01
  0.322693E-01  0.269432E-01  0.204196E-01  0.162499E-01  0.162499E-01  0.204196E-01
  0.269432E-01  0.322693E-01  0.339665E-01  0.328784E-01  0.313126E-01  0.306803E-01
  0.315937E-01  0.322725E-01  0.338196E-01  0.344003E-01  0.313606E-01  0.241953E-01
  0.162499E-01  0.115059E-01  0.115059E-01  0.162499E-01  0.241953E-01  0.313606E-01
  0.344003E-01  0.338196E-01  0.322725E-01  0.315937E-01  0.315937E-01  0.322725E-01
  0.338196E-01  0.344003E-01  0.313606E-01  0.241953E-01  0.162499E-01  0.115059E-01
  0.115059E-01  0.162499E-01  0.241953E-01  0.313606E-01  0.344003E-01  0.338196E-01
  0.322725E-01  0.315937E-01  0.306803E-01  0.313126E-01  0.328784E-01  0.339665E-01
  0.322693E-01  0.269432E-01  0.204196E-01  0.162499E-01  0.162499E-01  0.204196E-01
  0.269432E-01  0.322693E-01  0.339665E-01  0.328784E-01  0.313126E-01  0.306803E-01
  0.290108E-01  0.295655E-01  0.311080E-01  0.328385E-01  0.330808E-01  0.307391E-01
  0.269432E-01  0.241953E-01  0.241953E-01  0.269432E-01  0.307391E-01  0.330808E-01
  0.328385E-01  0.311080E-01  0.295655E-01  0.290108E-01  0.269054E-01  0.273782E-01
  0.288128E-01  0.309004E-01  0.326563E-01  0.330808E-01  0.322693E-01  0.313606E-01
  0.313606E-01  0.322693E-01  0.330808E-01  0.326563E-01  0.309004E-01  0.288128E-01
  0.273782E-01  0.269054E-01  0.247428E-01  0.251644E-01  0.264634E-01  0.285407E-01
  0.309004E-01  0.328385E-01  0.339665E-01  0.344003E-01  0.344003E-01  0.339665E-01
  0.328385E-01  0.309004E-01  0.285407E-01  0.264634E-01  0.251644E-01  0.247428E-01
  0.228484E-01  0.232729E-01  0.245188E-01  0.264634E-01  0.288128E-01  0.311080E-01
  0.328784E-01  0.338196E-01  0.338196E-01  0.328784E-01  0.311080E-01  0.288128E-01
  0.264634E-01  0.245188E-01  0.232729E-01  0.228484E-01  0.215179E-01  0.219813E-01
  0.232729E-01  0.251644E-01  0.273782E-01  0.295655E-01  0.313126E-01  0.322725E-01
  0.322725E-01  0.313126E-01  0.295655E-01  0.273782E-01  0.251644E-01  0.232729E-01
  0.219813E-01  0.215179E-01  0.210318E-01  0.215179E-01  0.228484E-01  0.247428E-01
  0.269054E-01  0.290108E-01  0.306803E-01  0.315937E-01  0.315937E-01  0.306803E-01
  0.290108E-01  0.269054E-01  0.247428E-01  0.228484E-01  0.215179E-01  0.210318E-01
  0.196572E-01  0.201943E-01  0.216757E-01  0.238176E-01  0.263254E-01  0.288642E-01
  0.309802E-01  0.321913E-01  0.321913E-01  0.309802E-01  0.288642E-01  0.263254E-01
  0.238176E-01  0.216757E-01  0.201943E-01  0.196572E-01  0.201943E-01  0.207026E-01
  0.221389E-01  0.242903E-01  0.268768E-01  0.295160E-01  0.317057E-01  0.329509E-01
  0.329509E-01  0.317057E-01  0.295160E-01  0.268768E-01  0.242903E-01  0.221389E-01
  0.207026E-01  0.201943E-01  0.216757E-01  0.221389E-01  0.235297E-01  0.257581E-01
  0.284918E-01  0.311752E-01  0.332508E-01  0.343599E-01  0.343599E-01  0.332508E-01
  0.311752E-01  0.284918E-01  0.257581E-01  0.235297E-01  0.221389E-01  0.216757E-01
  0.238176E-01  0.242903E-01  0.257581E-01  0.280918E-01  0.306382E-01  0.325311E-01
  0.334225E-01  0.336484E-01  0.336484E-01  0.334225E-01  0.325311E-01  0.306382E-01
  0.280918E-01  0.257581E-01  0.242903E-01  0.238176E-01  0.263254E-01  0.268768E-01
  0.284918E-01  0.306382E-01  0.319733E-01  0.313772E-01  0.293640E-01  0.276899E-01
  0.276899E-01  0.293640E-01  0.313772E-01  0.319733E-01  0.306382E-01  0.284918E-01
  0.268768E-01  0.263254E-01  0.288643E-01  0.295160E-01  0.311752E-01  0.325311E-01
  0.313772E-01  0.268215E-01  0.210429E-01  0.173126E-01  0.173126E-01  0.210429E-01
  0.268215E-01  0.313772E-01  0.325311E-01  0.311752E-01  0.295160E-01  0.288643E-01
  0.309802E-01  0.317057E-01  0.332508E-01  0.334225E-01  0.293640E-01  0.210429E-01
  0.126017E-01  0.798189E-02  0.798189E-02  0.126017E-01  0.210429E-01  0.293640E-01
  0.334225E-01  0.332508E-01  0.317057E-01  0.309802E-01  0.321913E-01  0.329509E-01
  0.343599E-01  0.336484E-01  0.276899E-01  0.173126E-01  0.798189E-02  0.353671E-02
  0.353671E-02  0.798189E-02  0.173126E-01  0.276899E-01  0.336484E-01  0.343599E-01
  0.329509E-01  0.321913E-01  0.321913E-01  0.329509E-01  0.343599E-01  0.336484E-01
  0.276899E-01  0.173126E-01  0.798189E-02  0.353671E-02  0.353671E-02  0.798189E-02
  0.173126E-01  0.276899E-01  0.336484E-01  0.343599E-01  0.329509E-01  0.321913E-01
  0.309802E-01  0.317057E-01  0.332508E-01  0.334225E-01  0.293640E-01  0.210429E-01
  0.126017E-01  0.798190E-02  0.798190E-02  0.126017E-01  0.210429E-01  0.293640E-01
  0.334225E-01  0.332508E-01  0.317057E-01  0.309802E-01  0.288642E-01  0.295160E-01
  0.311752E-01  0.325311E-01  0.313772E-01  0.268215E-01  0.210429E-01  0.173126E-01
  0.173126E-01  0.210429E-01  0.268215E-01  0.313772E-01  0.325311E-01  0.311752E-01
  0.295160E-01  0.288642E-01  0.263254E-01  0.268768E-01  0.284918E-01  0.306382E-01
  0.319733E-01  0.313772E-01  0.293640E-01  0.276899E-01  0.276899E-01  0.293640E-01
  0.313772E-01  0.319733E-01  0.306382E-01  0.284918E-01  0.268768E-01  0.263254E-01
  0.238176E-01  0.242903E-01  0.257581E-01  0.280918E-01  0.306382E-01  0.325311E-01
  0.334225E-01  0.336484E-01  0.336484E-01  0.334225E-01  0.325311E-01  0.306382E-01
  0.280918E-01  0.257581E-01  0.242903E-01  0.238176E-01  0.216757E-01  0.221389E-01
  0.235297E-01  0.257581E-01  0.284918E-01  0.311752E-01  0.332508E-01  0.343599E-01
  0.343599E-01  0.332508E-01  0.311752E-01  0.284918E-01  0.257581E-01  0.235297E-01
  0.221389E-01  0.216757E-01  0.201943E-01  0.207025E-01  0.221389E-01  0.242903E-01
  0.268768E-01  0.295160E-01  0.317057E-01  0.329509E-01  0.329509E-01  0.317057E-01
  0.295160E-01  0.268768E-01  0.242903E-01  0.221389E-01  0.207025E-01  0.201943E-01
  0.196572E-01  0.201943E-01  0.216757E-01  0.238176E-01  0.263254E-01  0.288642E-01
  0.309802E-01  0.321913E-01  0.321913E-01  0.309802E-01  0.288642E-01  0.263254E-01
  0.238176E-01  0.216757E-01  0.201943E-01  0.196572E-01  0.190935E-01  0.196491E-01
  0.211887E-01  0.234337E-01  0.260944E-01  0.288343E-01  0.311647E-01  0.325221E-01
  0.325221E-01  0.311647E-01  0.288343E-01  0.260944E-01  0.234336E-01  0.211887E-01
  0.196491E-01  0.190935E-01  0.196491E-01  0.201737E-01  0.216672E-01  0.239292E-01
  0.266802E-01  0.295226E-01  0.319145E-01  0.332918E-01  0.332918E-01  0.319145E-01
  0.295226E-01  0.266802E-01  0.239292E-01  0.216672E-01  0.201737E-01  0.196491E-01
  0.211887E-01  0.216672E-01  0.231188E-01  0.254682E-01  0.283579E-01  0.311825E-01
  0.333532E-01  0.345084E-01  0.345084E-01  0.333532E-01  0.311825E-01  0.283579E-01
  0.254682E-01  0.231188E-01  0.216672E-01  0.211887E-01  0.234337E-01  0.239292E-01
  0.254682E-01  0.278921E-01  0.304533E-01  0.322061E-01  0.328582E-01  0.329044E-01
  0.329044E-01  0.328582E-01  0.322061E-01  0.304533E-01  0.278921E-01  0.254682E-01
  0.239292E-01  0.234337E-01  0.260944E-01  0.266802E-01  0.283579E-01  0.304533E-01
  0.314276E-01  0.301398E-01  0.273914E-01  0.252794E-01  0.252794E-01  0.273914E-01
  0.301398E-01  0.314276E-01  0.304533E-01  0.283579E-01  0.266802E-01  0.260944E-01
  0.288343E-01  0.295226E-01  0.311825E-01  0.322061E-01  0.301398E-01  0.243318E-01
  0.176091E-01  0.135228E-01  0.135228E-01  0.176091E-01  0.243318E-01  0.301398E-01
  0.322061E-01  0.311825E-01  0.295226E-01  0.288343E-01  0.311647E-01  0.319145E-01
  0.333532E-01  0.328582E-01  0.273914E-01  0.176091E-01  0.865499E-02  0.430306E-02
  0.430306E-02  0.865500E-02  0.176091E-01  0.273914E-01  0.328582E-01  0.333532E-01
  0.319145E-01  0.311647E-01  0.325221E-01  0.332918E-01  0.345084E-01  0.329044E-01
  0.252794E-01  0.135228E-01  0.430306E-02  0.805677E-03  0.805677E-03  0.430306E-02
  0.135228E-01  0.252794E-01  0.329044E-01  0.345084E-01  0.332918E-01  0.325221E-01
  0.325221E-01  0.332918E-01  0.345084E-01  0.329044E-01  0.252794E-01  0.135228E-01
  0.430306E-02  0.805679E-03  0.805679E-03  0.430307E-02  0.135228E-01  0.252794E-01
  0.329044E-01  0.345084E-01  0.332918E-01  0.325221E-01  0.311647E-01  0.319145E-01
  0.333532E-01  0.328582E-01  0.273914E-01  0.176091E-01  0.865500E-02  0.430307E-02
  0.430307E-02  0.865500E-02  0.176091E-01  0.273914E-01  0.328582E-01  0.333532E-01
  0.319145E-01  0.311647E-01  0.288343E-01  0.295226E-01  0.311825E-01  0.322061E-01
  0.301398E-01  0.243318E-01  0.176091E-01  0.135228E-01  0.135229E-01  0.176091E-01
  0.243318E-01  0.301398E-01  0.322061E-01  0.311825E-01  0.295226E-01  0.288343E-01
  0.260944E-01  0.266802E-01  0.283579E-01  0.304533E-01  0.314276E-01  0.301398E-01
  0.273914E-01  0.252794E-01  0.252794E-01  0.273914E-01  0.301398E-01  0.314276E-01
  0.304533E-01  0.283579E-01  0.266802E-01  0.260944E-01  0.234336E-01  0.239292E-01
  0.254682E-01  0.278921E-01  0.304533E-01  0.322061E-01  0.328582E-01  0.329044E-01
  0.329044E-01  0.328582E-01  0.322061E-01  0.304533E-01  0.278921E-01  0.254682E-01
  0.239291E-01  0.234336E-01  0.211887E-01  0.216672E-01  0.231188E-01  0.254682E-01
  0.283579E-01  0.311825E-01  0.333532E-01  0.345084E-01  0.345084E-01  0.333532E-01
  0.311825E-01  0.283579E-01  0.254682E-01  0.231188E-01  0.216672E-01  0.211887E-01
  0.196491E-01  0.201737E-01  0.216672E-01  0.239292E-01  0.266802E-01  0.295226E-01
  0.319145E-01  0.332918E-01  0.332918E-01  0.319145E-01  0.295226E-01  0.266802E-01
  0.239292E-01  0.216672E-01  0.201737E-01  0.196491E-01  0.190935E-01  0.196491E-01
  0.211887E-01  0.234337E-01  0.260944E-01  0.288343E-01  0.311647E-01  0.325221E-01
  0.325221E-01  0.311647E-01  0.288343E-01  0.260944E-01  0.234336E-01  0.211887E-01
  0.196491E-01  0.190935E-01  0.194861E-01  0.200317E-01  0.215389E-01  0.237248E-01
  0.262987E-01  0.289296E-01  0.311498E-01  0.324345E-01  0.324345E-01  0.311498E-01