 CRYSTAL
 PRIMVEC
    2.794539329    0.000000000    0.000000000
    0.000000000    2.794539329    0.000000000
    0.000000000    0.000000000   23.357452760
 PRIMCOORD
           7           1
Al       -0.000000023   -0.000000088   -0.804051447
Al        1.397269644    1.397269599    1.248826538
Al       -0.000000015    0.000000056    3.258771389
Al        0.000000000    0.000000000    5.928112170
Al        0.000000072   -0.000000028    8.597443420
Al        1.397269637    1.397269716   10.607385413
Al       -0.000000050    0.000000071   12.660260583
BEGIN_BLOCK_DATAGRID_3D
3D_PWSCF
DATAGRID_3D_UNKNOWN
          16          16         126
  0.000000  0.000000  0.000000
  2.794539  0.000000  0.000000
  0.000000  2.794539  0.000000
  0.000000  0.000000 23.357453
  0.276550E-01  0.284768E-01  0.303096E-01  0.317360E-01  0.317972E-01  0.308157E-01
  0.297660E-01  0.292191E-01  0.292191E-01  0.297660E-01  0.308157E-01  0.317972E-01
  0.317360E-01  0.303096E-01  0.284768E-01  0.276550E-01  0.284768E-01  0.291885E-01
  0.307401E-01  0.318505E-01  0.317012E-01  0.306490E-01  0.296065E-01  0.290775E-01
  0.290775E-01  0.296065E-01  0.306490E-01  0.317012E-01  0.318505E-01  0.307401E-01
  0.291885E-01  0.284768E-01  0.303096E-01  0.307401E-01  0.315918E-01  0.319500E-01
  0.313326E-01  0.301450E-01  0.291296E-01  0.286390E-01  0.286390E-01  0.291296E-01
  0.301450E-01  0.313326E-01  0.319500E-01  0.315918E-01  0.307401E-01  0.303096E-01
  0.317360E-01  0.318505E-01  0.319500E-01  0.315709E-01  0.305720E-01  0.293354E-01
  0.283784E-01  0.279188E-01  0.279188E-01  0.283784E-01  0.293354E-01  0.305720E-01
  0.315709E-01  0.319500E-01  0.318505E-01  0.317360E-01  0.317972E-01  0.317012E-01
  0.313326E-01  0.305720E-01  0.294800E-01  0.283406E-01  0.274674E-01  0.270199E-01
  0.270199E-01  0.274674E-01  0.283406E-01  0.294800E-01  0.305720E-01  0.313326E-01
  0.317012E-01  0.317972E-01  0.308157E-01  0.306490E-01  0.301450E-01  0.293354E-01
  0.283406E-01  0.273463E-01  0.265442E-01  0.260940E-01  0.260940E-01  0.265442E-01
  0.273463E-01  0.283406E-01  0.293354E-01  0.301450E-01  0.306490E-01  0.308157E-01
  0.297660E-01  0.296065E-01  0.291296E-01  0.283784E-01  0.274674E-01  0.265442E-01
  0.257646E-01  0.253046E-01  0.253046E-01  0.257646E-01  0.265442E-01  0.274674E-01
  0.283784E-01  0.291296E-01  0.296065E-01  0.297660E-01  0.292191E-01  0.290775E-01
  0.286390E-01  0.279188E-01  0.270199E-01  0.260940E-01  0.253046E-01  0.248358E-01
  0.248358E-01  0.253046E-01  0.260940E-01  0.270199E-01  0.279188E-01  0.286390E-01
  0.290775E-01  0.292191E-01  0.292191E-01  0.290775E-01  0.286390E-01  0.279188E-01
  0.270199E-01  0.260940E-01  0.253046E-01  0.248358E-01  0.248358E-01  0.253046E-01
  0.260940E-01  0.270199E-01  0.279188E-01  0.286390E-01  0.290775E-01  0.292191E-01
  0.297660E-01  0.296065E-01  0.291296E-01  0.283784E-01  0.274674E-01  0.265442E-01
  0.257646E-01  0.253046E-01  0.253046E-01  0.257646E-01  0.265442E-01  0.274674E-01
  0.283784E-01  0.291296E-01  0.296065E-01  0.297660E-01  0.308157E-01  0.306490E-01
  0.301450E-01  0.293355E-01  0.283406E-01  0.273464E-01  0.265442E-01  0.260940E-01
  0.260940E-01  0.265442E-01  0.273464E-01  0.283406E-01  0.293355E-01  0.301450E-01
  0.306490E-01  0.308157E-01  0.317972E-01  0.317012E-01  0.313326E-01  0.305720E-01
  0.294800E-01  0.283406E-01  0.274674E-01  0.270199E-01  0.270199E-01  0.274674E-01
  0.283406E-01  0.294800E-01  0.305720E-01  0.313326E-01  0.317012E-01  0.317972E-01
  0.317360E-01  0.318505E-01  0.319500E-01  0.315709E-01  0.305720E-01  0.293355E-01
  0.283784E-01  0.279188E-01  0.279188E-01  0.283784E-01  0.293355E-01  0.305720E-01
  0.315709E-01  0.319500E-01  0.318505E-01  0.317360E-01  0.303096E-01  0.307401E-01
  0.315918E-01  0.319500E-01  0.313326E-01  0.301450E-01  0.291296E-01  0.286390E-01
  0.286390E-01  0.291296E-01  0.301450E-01  0.313326E-01  0.319500E-01  0.315918E-01
  0.307401E-01  0.303096E-01  0.284768E-01  0.291885E-01  0.307401E-01  0.318505E-01
  0.317012E-01  0.306490E-01  0.296065E-01  0.290775E-01  0.290775E-01  0.296065E-01
  0.306490E-01  0.317012E-01  0.318505E-01  0.307401E-01  0.291885E-01  0.284768E-01
  0.276550E-01  0.284768E-01  0.303096E-01  0.317360E-01  0.317972E-01  0.308157E-01
  0.297660E-01  0.292191E-01  0.292191E-01  0.297660E-01  0.308157E-01  0.317972E-01
  0.317360E-01  0.303096E-01  0.284768E-01  0.276550E-01  0.286793E-01  0.289431E-01
  0.294959E-01  0.298504E-01  0.297441E-01  0.293514E-01  0.290056E-01  0.288501E-01
  0.288501E-01  0.290056E-01  0.293514E-01  0.297441E-01  0.298504E-01  0.294959E-01
  0.289431E-01  0.286793E-01  0.289431E-01  0.291784E-01  0.296592E-01  0.299342E-01
  0.297772E-01  0.293709E-01  0.290314E-01  0.288831E-01  0.288831E-01  0.290314E-01
  0.293709E-01  0.297772E-01  0.299342E-01  0.296592E-01  0.291784E-01  0.289431E-01
  0.294959E-01  0.296592E-01  0.299690E-01  0.300791E-01  0.298441E-01  0.294414E-01
  0.291301E-01  0.289980E-01  0.289980E-01  0.291301E-01  0.294414E-01  0.298441E-01
  0.300791E-01  0.299690E-01  0.296592E-01  0.294959E-01  0.298504E-01  0.299342E-01
  0.300791E-01  0.300845E-01  0.298732E-01  0.295577E-01  0.293023E-01  0.291790E-01
  0.291790E-01  0.293023E-01  0.295577E-01  0.298732E-01  0.300845E-01  0.300791E-01
  0.299342E-01  0.298504E-01  0.297441E-01  0.297772E-01  0.298441E-01  0.298732E-01
  0.298064E-01  0.296405E-01  0.294370E-01  0.292961E-01  0.292961E-01  0.294370E-01
  0.296405E-01  0.298064E-01  0.298732E-01  0.298441E-01  0.297772E-01  0.297441E-01
  0.293514E-01  0.293709E-01  0.294414E-01  0.295577E-01  0.296405E-01  0.295801E-01
  0.293740E-01  0.291819E-01  0.291819E-01  0.293740E-01  0.295801E-01  0.296405E-01
  0.295577E-01  0.294414E-01  0.293709E-01  0.293514E-01  0.290056E-01  0.290314E-01
  0.291301E-01  0.293023E-01  0.294370E-01  0.293740E-01  0.291036E-01  0.288459E-01
  0.288459E-01  0.291036E-01  0.293740E-01  0.294370E-01  0.293023E-01  0.291301E-01
  0.290314E-01  0.290056E-01  0.288501E-01  0.288831E-01  0.289980E-01  0.291790E-01
  0.292961E-01  0.291819E-01  0.288459E-01  0.285427E-01  0.285427E-01  0.288459E-01
  0.291819E-01  0.292961E-01  0.291790E-01  0.289980E-01  0.288831E-01  0.288501E-01
  0.288501E-01  0.288831E-01  0.289980E-01  0.291790E-01  0.292961E-01  0.291819E-01
  0.288459E-01  0.285427E-01  0.285427E-01  0.288459E-01  0.291819E-01  0.292961E-01
  0.291790E-01  0.289980E-01  0.288831E-01  0.288501E-01  0.290056E-01  0.290314E-01
  0.291301E-01  0.293023E-01  0.294370E-01  0.293740E-01  0.291036E-01  0.288459E-01
  0.288459E-01  0.291036E-01  0.293740E-01  0.294370E-01  0.293023E-01  0.291301E-01
  0.290314E-01  0.290056E-01  0.293514E-01  0.293709E-01  0.294414E-01  0.295577E-01
  0.296405E-01  0.295801E-01  0.293740E-01  0.291819E-01  0.291819E-01  0.293740E-01
  0.295801E-01  0.296405E-01  0.295577E-01  0.294414E-01  0.293709E-01  0.293514E-01
  0.297441E-01  0.297772E-01  0.298441E-01  0.298732E-01  0.298064E-01  0.296405E-01
  0.294370E-01  0.292961E-01  0.292961E-01  0.294370E-01  0.296405E-01  0.298064E-01
  0.298732E-01  0.298441E-01  0.297772E-01  0.297441E-01  0.298504E-01  0.299342E-01
  0.300791E-01  0.300845E-01  0.298732E-01  0.295577E-01  0.293023E-01  0.291790E-01
  0.291790E-01  0.293023E-01  0.295577E-01  0.298732E-01  0.300845E-01  0.300791E-01
  0.299342E-01  0.298504E-01  0.294959E-01  0.296592E-01  0.299690E-01  0.300791E-01
  0.298441E-01  0.294414E-01  0.291301E-01  0.289980E-01  0.289980E-01  0.291301E-01
  0.294414E-01  0.298441E-01  0.300791E-01  0.299690E-01  0.296592E-01  0.294959E-01
  0.289431E-01  0.291784E-01  0.296592E-01  0.299342E-01  0.297772E-01  0.293709E-01
  0.290314E-01  0.288831E-01  0.288831E-01  0.290314E-01  0.293709E-01  0.297772E-01
  0.299342E-01  0.296592E-01  0.291784E-01  0.289431E-01  0.286793E-01  0.289431E-01
  0.294959E-01  0.298504E-01  0.297441E-01  0.293514E-01  0.290056E-01  0.288501E-01
  0.288501E-01  0.290056E-01  0.293514E-01  0.297441E-01  0.298504E-01  0.294959E-01
  0.289431E-01  0.286793E-01  0.259224E-01  0.261315E-01  0.266660E-01  0.273307E-01
  0.279639E-01  0.284766E-01  0.288240E-01  0.289933E-01  0.289933E-01  0.288240E-01
  0.284766E-01  0.279639E-01  0.273307E-01  0.266660E-01  0.261315E-01  0.259224E-01
  0.261315E-01  0.263401E-01  0.268710E-01  0.275272E-01  0.281523E-01  0.286670E-01
  0.290277E-01  0.292102E-01  0.292102E-01  0.290277E-01  0.286670E-01  0.281523E-01
  0.275272E-01  0.268710E-01  0.263401E-01  0.261315E-01  0.266660E-01  0.268710E-01
  0.273989E-01  0.280668E-01  0.287243E-01  0.292855E-01  0.296933E-01  0.299061E-01
  0.299061E-01  0.296933E-01  0.292855E-01  0.287243E-01  0.280668E-01  0.273989E-01
  0.268710E-01  0.266660E-01  0.273307E-01  0.275272E-01  0.280668E-01  0.288199E-01
  0.296165E-01  0.302926E-01  0.307443E-01  0.309559E-01  0.309559E-01  0.307443E-01
  0.302926E-01  0.296165E-01  0.288199E-01  0.280668E-01  0.275272E-01  0.273307E-01
  0.279639E-01  0.281523E-01  0.287243E-01  0.296165E-01  0.305917E-01  0.313327E-01
  0.316894E-01  0.317761E-01  0.317761E-01  0.316894E-01  0.313327E-01  0.305917E-01
  0.296165E-01  0.287243E-01  0.281523E-01  0.279639E-01  0.284766E-01  0.286670E-01
  0.292855E-01  0.302926E-01  0.313327E-01  0.319214E-01  0.319274E-01  0.317154E-01
  0.317154E-01  0.319274E-01  0.319214E-01  0.313327E-01  0.302926E-01  0.292855E-01
  0.286670E-01  0.284766E-01  0.288240E-01  0.290277E-01  0.296933E-01  0.307443E-01
  0.316894E-01  0.319274E-01  0.314229E-01  0.308332E-01  0.308332E-01  0.314229E-01
  0.319274E-01  0.316894E-01  0.307443E-01  0.296933E-01  0.290277E-01  0.288240E-01
  0.289933E-01  0.292102E-01  0.299061E-01  0.309559E-01  0.317761E-01  0.317154E-01
  0.308332E-01  0.299823E-01  0.299823E-01  0.308332E-01  0.317154E-01  0.317761E-01
  0.309559E-01  0.299061E-01  0.292102E-01  0.289933E-01  0.289933E-01  0.292102E-01
  0.299061E-01  0.309559E-01  0.317761E-01  0.317154E-01  0.308332E-01  0.299823E-01
  0.299823E-01  0.308332E-01  0.317154E-01  0.317761E-01  0.309559E-01  0.299061E-01
  0.292102E-01  0.289933E-01  0.288240E-01  0.290277E-01  0.296933E-01  0.307443E-01
  0.316894E-01  0.319274E-01  0.314229E-01  0.308332E-01  0.308332E-01  0.314229E-01
  0.319274E-01  0.316894E-01  0.307443E-01  0.296933E-01  0.290277E-01  0.288240E-01
  0.284766E-01  0.286670E-01  0.292855E-01  0.302926E-01  0.313327E-01  0.319214E-01
  0.319274E-01  0.317154E-01  0.317154E-01  0.319274E-01  0.319214E-01  0.313327E-01
  0.302926E-01  0.292855E-01  0.286670E-01  0.284766E-01  0.279639E-01  0.281523E-01
  0.287243E-01  0.296165E-01  0.305917E-01  0.313327E-01  0.316894E-01  0.317761E-01
  0.317761E-01  0.316894E-01  0.313327E-01  0.305917E-01  0.296165E-01  0.287243E-01
  0.281523E-01  0.279639E-01  0.273307E-01  0.275272E-01  0.280668E-01  0.288199E-01
  0.296165E-01  0.302926E-01  0.307443E-01  0.309559E-01  0.309559E-01  0.307443E-01
  0.302926E-01  0.296165E-01  0.288199E-01  0.280668E-01  0.275272E-01  0.273307E-01
  0.266660E-01  0.268710E-01  0.273989E-01  0.280668E-01  0.287243E-01  0.292855E-01
  0.296933E-01  0.299061E-01  0.299061E-01  0.296933E-01  0.292855E-01  0.287243E-01
  0.280668E-01  0.273989E-01  0.268710E-01  0.266660E-01  0.261315E-01  0.263401E-01
  0.268710E-01  0.275272E-01  0.281523E-01  0.286670E-01  0.290277E-01  0.292102E-01
  0.292102E-01  0.290277E-01  0.286670E-01  0.281523E-01  0.275272E-01  0.268710E-01
  0.263401E-01  0.261315E-01  0.259224E-01  0.261315E-01  0.266660E-01  0.273307E-01
  0.279639E-01  0.284766E-01  0.288240E-01  0.289933E-01  0.289933E-01  0.288240E-01
  0.284766E-01  0.279639E-01  0.273307E-01  0.266660E-01  0.261315E-01  0.259224E-01
  0.227794E-01  0.231172E-01  0.240361E-01  0.253260E-01  0.267560E-01  0.280770E-01
  0.290501E-01  0.295448E-01  0.295448E-01  0.290501E-01  0.280770E-01  0.267560E-01
  0.253260E-01  0.240361E-01  0.231172E-01  0.227794E-01  0.231172E-01  0.234493E-01
  0.243572E-01  0.256427E-01  0.270842E-01  0.284362E-01  0.294521E-01  0.299793E-01
  0.299793E-01  0.294521E-01  0.284362E-01  0.270842E-01  0.256427E-01  0.243572E-01
  0.234493E-01  0.231172E-01  0.240361E-01  0.243572E-01  0.252581E-01  0.265806E-01
  0.281043E-01  0.295533E-01  0.306530E-01  0.312301E-01  0.312301E-01  0.306530E-01
  0.295533E-01  0.281043E-01  0.265806E-01  0.252581E-01  0.243572E-01  0.240361E-01
  0.253260E-01  0.256427E-01  0.265806E-01  0.280355E-01  0.297180E-01  0.312216E-01
  0.322448E-01  0.327248E-01  0.327248E-01  0.322448E-01  0.312216E-01  0.297180E-01
  0.280355E-01  0.265806E-01  0.256427E-01  0.253260E-01  0.267560E-01  0.270842E-01
  0.281043E-01  0.297180E-01  0.314417E-01  0.326374E-01  0.330732E-01  0.330802E-01
  0.330802E-01  0.330732E-01  0.326374E-01  0.314417E-01  0.297180E-01  0.281043E-01
  0.270842E-01  0.267560E-01  0.280770E-01  0.284362E-01  0.295533E-01  0.312216E-01
  0.326374E-01  0.329226E-01  0.321147E-01  0.312300E-01  0.312300E-01  0.321147E-01
  0.329226E-01  0.326374E-01  0.312216E-01  0.295533E-01  0.284362E-01  0.280770E-01
  0.290501E-01  0.294521E-01  0.306530E-01  0.322448E-01  0.330732E-01  0.321147E-01
  0.298256E-01  0.279567E-01  0.279567E-01  0.298256E-01  0.321147E-01  0.330732E-01
  0.322448E-01  0.306530E-01  0.294521E-01  0.290501E-01  0.295448E-01  0.299793E-01
  0.312301E-01  0.327248E-01  0.330802E-01  0.312300E-01  0.279567E-01  0.254692E-01
  0.254692E-01  0.279567E-01  0.312300E-01  0.330802E-01  0.327248E-01  0.312301E-01
  0.299793E-01  0.295448E-01  0.295448E-01  0.299793E-01  0.312301E-01  0.327248E-01
  0.330802E-01  0.312300E-01  0.279567E-01  0.254692E-01  0.254692E-01  0.279567E-01
  0.312300E-01  0.330802E-01  0.327248E-01  0.312301E-01  0.299793E-01  0.295448E-01
  0.290501E-01  0.294521E-01  0.306530E-01  0.322448E-01  0.330732E-01  0.321147E-01
  0.298256E-01  0.279567E-01  0.279567E-01  0.298256E-01  0.321147E-01  0.330732E-01
  0.322448E-01  0.306530E-01  0.294521E-01  0.290501E-01  0.280770E-01  0.284362E-01
  0.295533E-01  0.312216E-01  0.326374E-01  0.329226E-01  0.321147E-01  0.312300E-01
  0.312300E-01  0.321147E-01  0.329226E-01  0.326374E-01  0.312216E-01  0.295533E-01
  0.284362E-01  0.280770E-01  0.267560E-01  0.270842E-01  0.281043E-01  0.297180E-01
  0.314417E-01  0.326374E-01  0.330732E-01  0.330802E-01  0.330802E-01  0.330732E-01
  0.326374E-01  0.314417E-01  0.297180E-01  0.281043E-01  0.270842E-01  0.267560E-01
  0.253260E-01  0.256427E-01  0.265806E-01  0.280355E-01  0.297180E-01  0.312216E-01
  0.322448E-01  0.327248E-01  0.327248E-01  0.322448E-01  0.312216E-01  0.297180E-01
  0.280355E-01  0.265806E-01  0.256427E-01  0.253260E-01  0.240361E-01  0.243572E-01
  0.252581E-01  0.265806E-01  0.281043E-01  0.295533E-01  0.306530E-01  0.312301E-01
  0.312301E-01  0.306530E-01  0.295533E-01  0.281043E-01  0.265806E-01  0.252581E-01
  0.243572E-01  0.240361E-01  0.231172E-01  0.234493E-01  0.243572E-01  0.256427E-01
  0.270842E-01  0.284362E-01  0.294521E-01  0.299793E-01  0.299793E-01  0.294521E-01
  0.284362E-01  0.270842E-01  0.256427E-01  0.243572E-01  0.234493E-01  0.231172E-01
  0.227794E-01  0.231172E-01  0.240361E-01  0.253260E-01  0.267560E-01  0.280770E-01
  0.290501E-01  0.295448E-01  0.295448E-01  0.290501E-01  0.280770E-01  0.267560E-01
  0.253260E-01  0.240361E-01  0.231172E-01  0.227794E-01  0.204954E-01  0.209481E-01
  0.221884E-01  0.239568E-01  0.259770E-01  0.279436E-01  0.295024E-01  0.303551E-01
  0.303551E-01  0.295024E-01  0.279436E-01  0.259770E-01  0.239568E-01  0.221884E-01
  0.209481E-01  0.204954E-01  0.209481E-01  0.213834E-01  0.225940E-01  0.243609E-01
  0.264241E-01  0.284625E-01  0.300936E-01  0.309917E-01  0.309917E-01  0.300936E-01
  0.284625E-01  0.264241E-01  0.243609E-01  0.225940E-01  0.213834E-01  0.209481E-01
  0.221884E-01  0.225940E-01  0.237734E-01  0.255962E-01  0.277940E-01  0.299581E-01
  0.316511E-01  0.325633E-01  0.325633E-01  0.316511E-01  0.299581E-01  0.277940E-01
  0.255962E-01  0.237734E-01  0.225940E-01  0.221884E-01  0.239568E-01  0.243609E-01
  0.255962E-01  0.275708E-01  0.298583E-01  0.318333E-01  0.330917E-01  0.336394E-01
  0.336394E-01  0.330917E-01  0.318333E-01  0.298583E-01  0.275708E-01  0.255962E-01
  0.243609E-01  0.239568E-01  0.259770E-01  0.264241E-01  0.277940E-01  0.298583E-01
  0.317903E-01  0.326662E-01  0.324136E-01  0.318773E-01  0.318773E-01  0.324136E-01
  0.326662E-01  0.317903E-01  0.298583E-01  0.277940E-01  0.264241E-01  0.259770E-01
  0.279436E-01  0.284625E-01  0.299581E-01  0.318333E-01  0.326662E-01  0.313433E-01
  0.285687E-01  0.264036E-01  0.264036E-01  0.285687E-01  0.313433E-01  0.326662E-01
  0.318333E-01  0.299581E-01  0.284625E-01  0.279436E-01  0.295024E-01  0.300936E-01
  0.316511E-01  0.330917E-01  0.324136E-01  0.285687E-01  0.232844E-01  0.196847E-01
  0.196847E-01  0.232844E-01  0.285687E-01  0.324136E-01  0.330917E-01  0.316511E-01
  0.300936E-01  0.295024E-01  0.303551E-01  0.309917E-01  0.325633E-01  0.336394E-01
  0.318773E-01  0.264036E-01  0.196847E-01  0.153750E-01  0.153750E-01  0.196847E-01
  0.264036E-01  0.318773E-01  0.336394E-01  0.325633E-01  0.309917E-01  0.303551E-01
  0.303551E-01  0.309917E-01  0.325633E-01  0.336394E-01  0.318773E-01  0.264036E-01
  0.196847E-01  0.153750E-01  0.153750E-01  0.196847E-01  0.264036E-01  0.318773E-01
  0.336394E-01  0.325633E-01  0.309917E-01  0.303551E-01  0.295024E-01  0.300936E-01
  0.316511E-01  0.330917E-01  0.324136E-01  0.285687E-01  0.232844E-01  0.196847E-01
  0.196847E-01  0.232844E-01  0.285687E-01  0.324136E-01  0.330917E-01  0.316511E-01
  0.300936E-01  0.295024E-01  0.279436E-01  0.284625E-01  0.299581E-01  0.318333E-01
  0.326662E-01  0.313433E-01  0.285687E-01  0.264036E-01  0.264036E-01  0.285687E-01
  0.313433E-01  0.326662E-01  0.318333E-01  0.299581E-01  0.284625E-01  0.279436E-01
  0.259770E-01  0.264241E-01  0.277940E-01  0.298583E-01  0.317903E-01  0.326662E-01
  0.324136E-01  0.318773E-01  0.318773E-01  0.324136E-01  0.326662E-01  0.317903E-01
  0.298583E-01  0.277940E-01  0.264241E-01  0.259770E-01  0.239568E-01  0.243609E-01
  0.255962E-01  0.275708E-01  0.298583E-01  0.318333E-01  0.330917E-01  0.336394E-01
  0.336394E-01  0.330917E-01  0.318333E-01  0.298583E-01  0.275708E-01  0.255962E-01
  0.243609E-01  0.239568E-01  0.221884E-01  0.225940E-01  0.237734E-01  0.255962E-01
  0.277940E-01  0.299581E-01  0.316511E-01  0.325633E-01  0.325633E-01  0.316511E-01
  0.299581E-01  0.277940E-01  0.255962E-01  0.237734E-01  0.225940E-01  0.221884E-01
  0.209481E-01  0.213834E-01  0.225940E-01  0.243609E-01  0.264241E-01  0.284625E-01
  0.300936E-01  0.309917E-01  0.309917E-01  0.300936E-01  0.284625E-01  0.264241E-01
  0.243609E-01  0.225940E-01  0.213834E-01  0.209481E-01  0.204954E-01  0.209481E-01
  0.221884E-01  0.239568E-01  0.259770E-01  0.279436E-01  0.295024E-01  0.303551E-01
  0.303551E-01  0.295024E-01  0.279436E-01  0.259770E-01  0.239568E-01  0.221884E-01
  0.209481E-01  0.204954E-01  0.190008E-01  0.195217E-01  0.209613E-01  0.230469E-01
  0.254887E-01  0.279557E-01  0.300070E-01  0.311794E-01  0.311794E-01  0.300070E-01
  0.279557E-01  0.254887E-01  0.230469E-01  0.209613E-01  0.195217E-01  0.190008E-01
  0.195217E-01  0.200172E-01  0.214170E-01  0.235121E-01  0.260283E-01  0.285941E-01
  0.307231E-01  0.319343E-01  0.319343E-01  0.307231E-01  0.285941E-01  0.260283E-01
  0.235121E-01  0.214170E-01  0.200172E-01  0.195217E-01  0.209613E-01  0.214170E-01
  0.227791E-01  0.249544E-01  0.276298E-01  0.302791E-01  0.323527E-01  0.334719E-01
  0.334719E-01  0.323527E-01  0.302791E-01  0.276298E-01  0.249544E-01  0.227791E-01
  0.214170E-01  0.209613E-01  0.230469E-01  0.235121E-01  0.249544E-01  0.272640E-01
  0.298509E-01  0.318937E-01  0.329920E-01  0.333634E-01  0.333634E-01  0.329920E-01
  0.318937E-01  0.298509E-01  0.272640E-01  0.249544E-01  0.235121E-01  0.230469E-01
  0.254887E-01  0.260283E-01  0.276298E-01  0.298509E-01  0.314818E-01  0.314129E-01
  0.299501E-01  0.286034E-01  0.286034E-01  0.299501E-01  0.314129E-01  0.314818E-01
  0.298509E-01  0.276298E-01  0.260283E-01  0.254887E-01  0.279557E-01  0.285941E-01
  0.302791E-01  0.318937E-01  0.314129E-01  0.278058E-01  0.228048E-01  0.194243E-01
  0.194243E-01  0.228048E-01  0.278058E-01  0.314129E-01  0.318937E-01  0.302791E-01
  0.285941E-01  0.279557E-01  0.300070E-01  0.307231E-01  0.323527E-01  0.329920E-01
  0.299501E-01  0.228048E-01  0.150219E-01  0.104841E-01  0.104841E-01  0.150219E-01
  0.228048E-01  0.299501E-01  0.329920E-01  0.323527E-01  0.307231E-01  0.300070E-01
  0.311794E-01  0.319343E-01  0.334719E-01  0.333634E-01  0.286034E-01  0.194243E-01
  0.104841E-01  0.579907E-02  0.579907E-02  0.104842E-01  0.194243E-01  0.286034E-01
  0.333634E-01  0.334719E-01  0.319343E-01  0.311794E-01  0.311794E-01  0.319343E-01
  0.334719E-01  0.333634E-01  0.286034E-01  0.194243E-01  0.104842E-01  0.579907E-02
  0.579907E-02  0.104842E-01  0.194243E-01  0.286034E-01  0.333634E-01  0.334719E-01
  0.319343E-01  0.311794E-01  0.300070E-01  0.307231E-01  0.323527E-01  0.329920E-01
  0.299501E-01  0.228048E-01  0.150219E-01  0.104842E-01  0.104842E-01  0.150219E-01
  0.228048E-01  0.299501E-01  0.329920E-01  0.323527E-01  0.307231E-01  0.300070E-01
  0.279557E-01  0.285941E-01  0.302791E-01  0.318937E-01  0.314129E-01  0.278058E-01
  0.228048E-01  0.194243E-01  0.194243E-01  0.228048E-01  0.278058E-01  0.314129E-01
  0.318937E-01  0.302791E-01  0.285941E-01  0.279557E-01  0.254887E-01  0.260283E-01
  0.276298E-01  0.298509E-01  0.314818E-01  0.314129E-01  0.299501E-01  0.286034E-01
  0.286034E-01  0.299501E-01  0.314129E-01  0.314818E-01  0.298509E-01  0.276298E-01
  0.260283E-01  0.254887E-01  0.230469E-01  0.235121E-01  0.249544E-01  0.272640E-01
  0.298509E-01  0.318937E-01  0.329920E-01  0.333634E-01  0.333634E-01  0.329920E-01
  0.318937E-01  0.298509E-01  0.272640E-01  0.249544E-01  0.235121E-01  0.230469E-01
  0.209613E-01  0.214170E-01  0.227791E-01  0.249544E-01  0.276298E-01  0.302791E-01
  0.323527E-01  0.334719E-01  0.334719E-01  0.323527E-01  0.302791E-01  0.276298E-01
  0.249544E-01  0.227791E-01  0.214170E-01  0.209613E-01  0.195217E-01  0.200172E-01
  0.214170E-01  0.235121E-01  0.260283E-01  0.285941E-01  0.307231E-01  0.319343E-01
  0.319343E-01  0.307231E-01  0.285941E-01  0.260283E-01  0.235121E-01  0.214170E-01
  0.200172E-01  0.195217E-01  0.190008E-01  0.195217E-01  0.209613E-01  0.230469E-01
  0.254887E-01  0.279557E-01  0.300070E-01  0.311794E-01  0.311794E-01  0.300070E-01
  0.279557E-01  0.254887E-01  0.230469E-01  0.209613E-01  0.195217E-01  0.190008E-01
  0.181860E-01  0.187407E-01  0.202864E-01  0.225551E-01  0.252487E-01  0.280131E-01
  0.303533E-01  0.317123E-01  0.317123E-01  0.303533E-01  0.280131E-01  0.252487E-01
  0.225551E-01  0.202864E-01  0.187407E-01  0.181860E-01  0.187407E-01  0.192663E-01
  0.207692E-01  0.230561E-01  0.258408E-01  0.287105E-01  0.311163E-01  0.324979E-01
  0.324979E-01  0.311163E-01  0.287105E-01  0.258408E-01  0.230561E-01  0.207692E-01
  0.192663E-01  0.187407E-01  0.202864E-01  0.207692E-01  0.222353E-01  0.246141E-01
  0.275497E-01  0.304283E-01  0.326445E-01  0.338242E-01  0.338242E-01  0.326445E-01
  0.304283E-01  0.275497E-01  0.246141E-01  0.222353E-01  0.207692E-01  0.202864E-01
  0.225551E-01  0.230561E-01  0.246141E-01  0.270859E-01  0.297474E-01  0.316469E-01
  0.324391E-01  0.325653E-01  0.325653E-01  0.324391E-01  0.316468E-01  0.297474E-01
  0.270859E-01  0.246141E-01  0.230561E-01  0.225551E-01  0.252487E-01  0.258408E-01
  0.275497E-01  0.297474E-01  0.309470E-01  0.299739E-01  0.275000E-01  0.255274E-01
  0.255274E-01  0.275000E-01  0.299739E-01  0.309470E-01  0.297474E-01  0.275497E-01
  0.258408E-01  0.252487E-01  0.280131E-01  0.287105E-01  0.304283E-01  0.316469E-01
  0.299739E-01  0.246403E-01  0.182400E-01  0.142588E-01  0.142588E-01  0.182400E-01
  0.246404E-01  0.299739E-01  0.316469E-01  0.304283E-01  0.287105E-01  0.280131E-01
  0.303533E-01  0.311163E-01  0.326445E-01  0.324391E-01  0.275000E-01  0.182400E-01
  0.948326E-02  0.506751E-02  0.506751E-02  0.948326E-02  0.182400E-01  0.275000E-01
  0.324391E-01  0.326445E-01  0.311163E-01  0.303533E-01  0.317123E-01  0.324979E-01
  0.338242E-01  0.325653E-01  0.255274E-01  0.142588E-01  0.506751E-02  0.133328E-02
  0.133328E-02  0.506751E-02  0.142588E-01  0.255274E-01  0.325653E-01  0.338242E-01
  0.324979E-01  0.317123E-01  0.317123E-01  0.324979E-01  0.338242E-01  0.325653E-01
  0.255274E-01  0.142588E-01  0.506751E-02  0.133328E-02  0.133328E-02  0.506751E-02
  0.142588E-01  0.255274E-01  0.325653E-01  0.338242E-01  0.324979E-01  0.317123E-01
  0.303533E-01  0.311163E-01  0.326445E-01  0.324391E-01  0.275000E-01  0.182400E-01
  0.948326E-02  0.506751E-02  0.506752E-02  0.948326E-02  0.182400E-01  0.275000E-01
  0.324391E-01  0.326445E-01  0.311163E-01  0.303533E-01  0.280131E-01  0.287105E-01
  0.304282E-01  0.316468E-01  0.299739E-01  0.246404E-01  0.182400E-01  0.142588E-01
  0.142588E-01  0.182400E-01  0.246404E-01  0.299739E-01  0.316468E-01  0.304282E-01
  0.287105E-01  0.280131E-01  0.252487E-01  0.258408E-01  0.275497E-01  0.297474E-01
  0.309470E-01  0.299739E-01  0.275000E-01  0.255274E-01  0.255274E-01  0.275000E-01
  0.299739E-01  0.309470E-01  0.297474E-01  0.275497E-01  0.258408E-01  0.252487E-01
  0.225551E-01  0.230561E-01  0.246141E-01  0.270859E-01  0.297474E-01  0.316469E-01
  0.324391E-01  0.325653E-01  0.325653E-01  0.324391E-01  0.316468E-01  0.297474E-01
  0.270859E-01  0.246141E-01  0.230561E-01  0.225551E-01  0.202864E-01  0.207692E-01
  0.222353E-01  0.246141E-01  0.275497E-01  0.304282E-01  0.326445E-01  0.338242E-01
  0.338242E-01  0.326445E-01  0.304282E-01  0.275497E-01  0.246141E-01  0.222353E-01
  0.207692E-01  0.202864E-01  0.187407E-01  0.192663E-01  0.207692E-01  0.230561E-01
  0.258408E-01  0.287105E-01  0.311163E-01  0.324979E-01  0.324979E-01  0.311163E-01
  0.287105E-01  0.258408E-01  0.230561E-01  0.207692E-01  0.192663E-01  0.187407E-01
  0.181860E-01  0.187407E-01  0.202864E-01  0.225551E-01  0.252487E-01  0.280131E-01
  0.303533E-01  0.317123E-01  0.317123E-01  0.303533E-01  0.280131E-01  0.252487E-01
  0.225551E-01  0.202864E-01  0.187407E-01  0.181860E-01  0.181595E-01  0.187152E-01
  0.202643E-01  0.225387E-01  0.252411E-01  0.280174E-01  0.303712E-01  0.317401E-01
  0.317401E-01  0.303712E-01  0.280174E-01  0.252411E-01  0.225387E-01  0.202643E-01
  0.187152E-01  0.181595E-01  0.187152E-01  0.192413E-01  0.207469E-01  0.230406E-01
  0.258355E-01  0.287161E-01  0.311314E-01  0.325189E-01  0.325189E-01  0.311314E-01
  0.287161E-01  0.258355E-01  0.230406E-01  0.207469E-01  0.192413E-01  0.187152E-01
  0.202643E-01  0.207469E-01  0.222153E-01  0.246007E-01  0.275407E-01  0.304117E-01
  0.326095E-01  0.337735E-01  0.337735E-01  0.326095E-01  0.304117E-01  0.275407E-01
  0.246007E-01  0.222153E-01  0.207469E-01  0.202643E-01  0.225387E-01  0.230406E-01
  0.246007E-01  0.270674E-01  0.296946E-01  0.315169E-01  0.322123E-01  0.322717E-01
  0.322717E-01  0.322123E-01  0.315169E-01  0.296946E-01  0.270674E-01  0.246007E-01
  0.230406E-01  0.225387E-01  0.252411E-01  0.258355E-01  0.275407E-01  0.296946E-01
  0.307684E-01  0.295935E-01  0.269201E-01  0.248329E-01  0.248329E-01  0.269201E-01
  0.295935E-01  0.307684E-01  0.296946E-01  0.275407E-01  0.258355E-01  0.252411E-01
  0.280174E-01  0.287161E-01  0.304117E-01  0.315169E-01  0.295935E-01  0.239488E-01
  0.173359E-01  0.132877E-01  0.132877E-01  0.173359E-01  0.239488E-01  0.295935E-01
  0.315169E-01  0.304117E-01  0.287161E-01  0.280174E-01  0.303712E-01  0.311314E-01
  0.326095E-01  0.322123E-01  0.269201E-01  0.173359E-01  0.851664E-02  0.421617E-02
  0.421618E-02  0.851664E-02  0.173359E-01  0.269201E-01  0.322123E-01  0.326095E-01
  0.311314E-01  0.303712E-01  0.317401E-01  0.325189E-01  0.337735E-01  0.322717E-01
  0.248329E-01  0.132877E-01  0.421618E-02  0.781575E-03  0.781576E-03  0.421618E-02
  0.132877E-01  0.248329E-01  0.322717E-01  0.337735E-01  0.325189E-01  0.317401E-01
  0.317401E-01  0.325189E-01  0.337735E-01  0.322717E-01  0.248329E-01  0.132877E-01
  0.421618E-02  0.781576E-03  0.781576E-03  0.421618E-02  0.132877E-01  0.248329E-01
  0.322717E-01  0.337735E-01  0.325189E-01  0.317401E-01  0.303712E-01  0.311314E-01
  0.326095E-01  0.322123E-01  0.269201E-01  0.173359E-01  0.851664E-02  0.421618E-02
  0.421618E-02  0.851664E-02  0.173359E-01  0.269201E-01  0.322123E-01  0.326095E-01
  0.311314E-01  0.303712E-01  0.280174E-01  0.287161E-01  0.304117E-01  0.315169E-01
  0.295935E-01  0.239488E-01  0.173359E-01  0.132877E-01  0.132877E-01  0.173359E-01
  0.239488E-01  0.295935E-01  0.315169E-01  0.304117E-01  0.287161E-01  0.280174E-01
  0.252411E-01  0.258354E-01  0.275407E-01  0.296946E-01  0.307684E-01  0.295935E-01
  0.269201E-01  0.248329E-01  0.248329E-01  0.269201E-01  0.295935E-01  0.307684E-01
  0.296946E-01  0.275407E-01  0.258354E-01  0.252411E-01  0.225387E-01  0.230406E-01
  0.246007E-01  0.270674E-01  0.296946E-01  0.315169E-01  0.322123E-01  0.322717E-01
  0.322717E-01  0.322123E-01  0.315169E-01  0.296946E-01  0.270674E-01  0.246007E-01
  0.230406E-01  0.225387E-01  0.202643E-01  0.207469E-01  0.222153E-01  0.246007E-01
  0.275407E-01  0.304117E-01  0.326095E-01  0.337735E-01  0.337735E-01  0.326095E-01
  0.304117E-01  0.275407E-01  0.246007E-01  0.222153E-01  0.207469E-01  0.202643E-01
  0.187152E-01  0.192413E-01  0.207469E-01  0.230406E-01  0.258355E-01  0.287161E-01
  0.311314E-01  0.325189E-01  0.325189E-01  0.311314E-01  0.287161E-01  0.258355E-01
  0.230406E-01  0.207469E-01  0.192413E-01  0.187152E-01  0.181595E-01  0.187152E-01
  0.202643E-01  0.225387E-01  0.252411E-01  0.280174E-01  0.303712E-01  0.317401E-01
  0.317401E-01  0.303712E-01  0.280174E-01  0.252411E-01  0.225387E-01  0.202643E-01
  0.187152E-01  0.181595E-01  0.189659E-01  0.194901E-01  0.209390E-01  0.230392E-01
  0.255025E-01  0.280013E-01  0.300908E-01  0.312911E-01  0.312911E-01  0.300908E-01