
     Program PWSCF v.6.5 starts on  6Jun2020 at 20:52:28 

     This program is part of the open-source Quantum ESPRESSO suite
     for quantum simulation of materials; please cite
         "P. Giannozzi et al., J. Phys.:Condens. Matter 21 395502 (2009);
         "P. Giannozzi et al., J. Phys.:Condens. Matter 29 465901 (2017);
          URL http://www.quantum-espresso.org", 
     in publications or presentations arising from this work. More details at
     http://www.quantum-espresso.org/quote

     Parallel version (MPI), running on     1 processors

     MPI processes distributed on     1 nodes
     Waiting for input...
     Reading input from standard input

     Current dimensions of program PWSCF are:
     Max number of different atomic species (ntypx) = 10
     Max number of k-points (npk) =  40000
     Max angular momentum in pseudopotentials (lmaxx) =  3
     Message from routine iosys:
     pot_extrapolation='second_order' not available, using 'atomic'
     Message from routine iosys:
     wfc_extrapolation='second_order' not available, using 'atomic'

     Subspace diagonalization in iterative solution of the eigenvalue problem:
     a serial algorithm will be used


     G-vector sticks info
     --------------------
     sticks:   dense  smooth     PW     G-vecs:    dense   smooth      PW
     Sum         475     475    163                 6855     6855    1291



     bravais-lattice index     =            2
     lattice parameter (alat)  =       7.6000  a.u.
     unit-cell volume          =     109.7440 (a.u.)^3
     number of atoms/cell      =            1
     number of atomic types    =            1
     number of electrons       =         3.00
     number of Kohn-Sham states=            6
     kinetic-energy cutoff     =      60.0000  Ry
     charge density cutoff     =     240.0000  Ry
     convergence threshold     =      1.0E-08
     mixing beta               =       0.7000
     number of iterations used =            8  plain     mixing
     Exchange-correlation= SLA PZ NOGX NOGC
                           (   1   1   0   0   0   0   0)
     nstep                     =           50


     celldm(1)=   7.600000  celldm(2)=   0.000000  celldm(3)=   0.000000
     celldm(4)=   0.000000  celldm(5)=   0.000000  celldm(6)=   0.000000

     crystal axes: (cart. coord. in units of alat)
               a(1) = (  -0.500000   0.000000   0.500000 )  
               a(2) = (   0.000000   0.500000   0.500000 )  
               a(3) = (  -0.500000   0.500000   0.000000 )  

     reciprocal axes: (cart. coord. in units 2 pi/alat)
               b(1) = ( -1.000000 -1.000000  1.000000 )  
               b(2) = (  1.000000  1.000000  1.000000 )  
               b(3) = ( -1.000000  1.000000 -1.000000 )  


     PseudoPot. # 1 for Al read from file:
     /home/alessandro/Quantum-Espresso/qe-6.5/pseudo/Al.pz-vbc.UPF
     MD5 check sum: f06ceae8da0fe5c02c98e3688433298c
     Pseudo is Norm-conserving, Zval =  3.0
     Generated by new atomic code, or converted to UPF format
     Using radial grid of  171 points,  2 beta functions with: 
                l(1) =   0
                l(2) =   1

     atomic species   valence    mass     pseudopotential
        Al             3.00    26.98100     Al( 1.00)

     48 Sym. Ops., with inversion, found



   Cartesian axes

     site n.     atom                  positions (alat units)
         1           Al  tau(   1) = (   0.0000000   0.0000000   0.0000000  )

     number of k points=    28  Methfessel-Paxton smearing, width (Ry)=  0.0500
                       cart. coord. in units 2pi/alat
        k(    1) = (  -0.0833333   0.0833333   0.0833333), wk =   0.0185185
        k(    2) = (  -0.2500000   0.2500000  -0.0833333), wk =   0.0555556
        k(    3) = (  -0.4166667   0.4166667  -0.2500000), wk =   0.0555556
        k(    4) = (   0.4166667  -0.4166667   0.5833333), wk =   0.0555556
        k(    5) = (   0.2500000  -0.2500000   0.4166667), wk =   0.0555556
        k(    6) = (   0.0833333  -0.0833333   0.2500000), wk =   0.0555556
        k(    7) = (  -0.0833333   0.4166667   0.0833333), wk =   0.0555556
        k(    8) = (  -0.2500000   0.5833333  -0.0833333), wk =   0.1111111
        k(    9) = (   0.5833333  -0.2500000   0.7500000), wk =   0.1111111
        k(   10) = (   0.4166667  -0.0833333   0.5833333), wk =   0.1111111
        k(   11) = (   0.2500000   0.0833333   0.4166667), wk =   0.1111111
        k(   12) = (  -0.0833333   0.7500000   0.0833333), wk =   0.0555556
        k(   13) = (   0.7500000  -0.0833333   0.9166667), wk =   0.1111111
        k(   14) = (   0.5833333   0.0833333   0.7500000), wk =   0.1111111
        k(   15) = (   0.4166667   0.2500000   0.5833333), wk =   0.1111111
        k(   16) = (  -0.0833333  -0.9166667   0.0833333), wk =   0.0555556
        k(   17) = (  -0.2500000  -0.7500000  -0.0833333), wk =   0.1111111
        k(   18) = (  -0.0833333  -0.5833333   0.0833333), wk =   0.0555556
        k(   19) = (  -0.2500000   0.2500000   0.2500000), wk =   0.0185185
        k(   20) = (  -0.4166667   0.4166667   0.0833333), wk =   0.0555556
        k(   21) = (   0.4166667  -0.4166667   0.9166667), wk =   0.0555556
        k(   22) = (   0.2500000  -0.2500000   0.7500000), wk =   0.0555556
        k(   23) = (  -0.2500000   0.5833333   0.2500000), wk =   0.0555556
        k(   24) = (   0.5833333  -0.2500000   1.0833333), wk =   0.1111111
        k(   25) = (   0.4166667  -0.0833333   0.9166667), wk =   0.1111111
        k(   26) = (  -0.2500000  -1.0833333   0.2500000), wk =   0.0555556
        k(   27) = (  -0.4166667   0.4166667   0.4166667), wk =   0.0185185
        k(   28) = (   0.4166667  -0.4166667   1.2500000), wk =   0.0555556

     Dense  grid:     6855 G-vectors     FFT dimensions: (  27,  27,  27)

     Estimated max dynamical RAM per process >       7.46 MB

     Initial potential from superposition of free atoms

     starting charge    2.99794, renormalised to    3.00000
     Starting wfcs are    4 randomized atomic wfcs +    2 random wfcs

     total cpu time spent up to now is        0.2 secs

     Self-consistent Calculation

     iteration #  1     ecut=    60.00 Ry     beta= 0.70
     Davidson diagonalization with overlap
     ethr =  1.00E-02,  avg # of iterations =  5.2

     Threshold (ethr) on eigenvalues was too large:
     Diagonalizing with lowered threshold

     Davidson diagonalization with overlap
     ethr =  1.91E-04,  avg # of iterations =  1.8

     total cpu time spent up to now is        1.0 secs

     total energy              =      -4.18921374 Ry
     Harris-Foulkes estimate   =      -4.18851116 Ry
     estimated scf accuracy    <       0.00571887 Ry

     iteration #  2     ecut=    60.00 Ry     beta= 0.70
     Davidson diagonalization with overlap
     ethr =  1.91E-04,  avg # of iterations =  1.0

     total cpu time spent up to now is        1.2 secs

     total energy              =      -4.18936033 Ry
     Harris-Foulkes estimate   =      -4.18924392 Ry
     estimated scf accuracy    <       0.00043582 Ry

     iteration #  3     ecut=    60.00 Ry     beta= 0.70
     Davidson diagonalization with overlap
     ethr =  1.45E-05,  avg # of iterations =  1.5

     total cpu time spent up to now is        1.5 secs

     total energy              =      -4.18936394 Ry
     Harris-Foulkes estimate   =      -4.18936365 Ry
     estimated scf accuracy    <       0.00000032 Ry

     iteration #  4     ecut=    60.00 Ry     beta= 0.70
     Davidson diagonalization with overlap
     ethr =  1.08E-08,  avg # of iterations =  1.9

     total cpu time spent up to now is        1.7 secs

     End of self-consistent calculation

          k =-0.0833 0.0833 0.0833 (   881 PWs)   bands (ev):

    -3.1409  17.8081  19.8567  19.8567  22.4469  22.5721

          k =-0.2500 0.2500-0.0833 (   869 PWs)   bands (ev):

    -2.1194  13.4687  16.3659  20.7122  22.0161  23.2025

          k =-0.4167 0.4167-0.2500 (   863 PWs)   bands (ev):

     0.3903   7.5972  15.9141  19.1017  20.4904  20.8886

          k = 0.4167-0.4167 0.5833 (   859 PWs)   bands (ev):

     2.8400   4.2935  16.8007  17.4179  19.0915  21.3264

          k = 0.2500-0.2500 0.4167 (   860 PWs)   bands (ev):

    -0.6063   9.4496  16.9779  18.5783  18.9911  23.4296

          k = 0.0833-0.0833 0.2500 (   881 PWs)   bands (ev):

    -2.6288  15.6584  17.8007  19.1266  21.4536  22.7409

          k =-0.0833 0.4167 0.0833 (   865 PWs)   bands (ev):

    -1.6122  13.8614  16.1156  17.4576  18.2365  20.4221

          k =-0.2500 0.5833-0.0833 (   859 PWs)   bands (ev):

     0.3904  10.2697  13.3337  14.7214  18.7557  21.8461

          k = 0.5833-0.2500 0.7500 (   857 PWs)   bands (ev):

     3.7955   5.2434  12.3916  13.7954  19.4194  23.2353

          k = 0.4167-0.0833 0.5833 (   861 PWs)   bands (ev):

     1.3772   8.4308  11.6033  15.5510  21.1645  22.3071

          k = 0.2500 0.0833 0.4167 (   865 PWs)   bands (ev):

    -1.1080  11.6503  14.6782  18.6066  19.9946  22.8234

          k =-0.0833 0.7500 0.0833 (   857 PWs)   bands (ev):

     1.8638  10.5371  11.6015  14.0141  15.1690  18.4651

          k = 0.7500-0.0833 0.9167 (   859 PWs)   bands (ev):

     4.6903   7.8023   8.9280  12.0590  17.4244  20.7071

          k = 0.5833 0.0833 0.7500 (   858 PWs)   bands (ev):

     4.7464   6.1111   9.2870  13.3319  19.0078  25.2640

          k = 0.4167 0.2500 0.5833 (   860 PWs)   bands (ev):

     1.8672   6.1869  14.6167  15.9866  20.1439  21.5881

          k =-0.0833-0.9167 0.0833 (   856 PWs)   bands (ev):

     4.2201   7.3513  11.1279  13.5962  14.6948  18.0413

          k =-0.2500-0.7500-0.0833 (   862 PWs)   bands (ev):

     2.3506   9.3344  11.0131  12.5336  17.8740  21.0996

          k =-0.0833-0.5833 0.0833 (   856 PWs)   bands (ev):

    -0.1063  12.4881  14.2210  14.8527  16.1087  19.2794

          k =-0.2500 0.2500 0.2500 (   878 PWs)   bands (ev):

    -1.6126  11.2831  18.6731  18.6731  22.1594  22.5312

          k =-0.4167 0.4167 0.0833 (   864 PWs)   bands (ev):

    -0.1067   9.8182  12.9617  18.6838  20.7305  22.6455

          k = 0.4167-0.4167 0.9167 (   858 PWs)   bands (ev):

     2.8395   7.0387  10.2290  16.1373  18.0449  25.2982

          k = 0.2500-0.2500 0.7500 (   863 PWs)   bands (ev):

     2.8353   7.1152  11.5049  14.8608  16.5610  23.8203

          k =-0.2500 0.5833 0.2500 (   864 PWs)   bands (ev):

     0.8849   8.0540  15.1109  15.7056  17.4491  24.4407

          k = 0.5833-0.2500 1.0833 (   860 PWs)   bands (ev):

     3.3176   7.5006  10.6343  12.0528  21.4001  22.8321

          k = 0.4167-0.0833 0.9167 (   868 PWs)   bands (ev):

     5.6223   7.0262   8.7646  10.3325  21.0057  23.7505

          k =-0.2500-1.0833 0.2500 (   861 PWs)   bands (ev):

     5.1553   6.6323   8.3605  14.4400  16.0957  23.4648

          k =-0.4167 0.4167 0.4167 (   865 PWs)   bands (ev):

     1.3775   5.7217  18.6949  18.6949  20.0300  20.0301

          k = 0.4167-0.4167 1.2500 (   855 PWs)   bands (ev):

     3.3213   4.7671  13.3218  16.5633  18.4479  23.0864

     the Fermi energy is     7.8139 ev

!    total energy              =      -4.18936397 Ry
     Harris-Foulkes estimate   =      -4.18936397 Ry
     estimated scf accuracy    <          4.4E-09 Ry

     The total energy is the sum of the following terms:

     one-electron contribution =       2.84588545 Ry
     hartree contribution      =       0.00920734 Ry
     xc contribution           =      -1.61507536 Ry
     ewald contribution        =      -5.42944193 Ry
     smearing contrib. (-TS)   =       0.00006052 Ry

     convergence has been achieved in   4 iterations

     Forces acting on atoms (cartesian axes, Ry/au):

     atom    1 type  1   force =     0.00000000    0.00000000    0.00000000

     Total force =     0.000000     Total SCF correction =     0.000000


     Computing stress (Cartesian axis) and pressure

          total   stress  (Ry/bohr**3)                   (kbar)     P=      -37.02
  -0.00025164   0.00000000   0.00000000          -37.02        0.00        0.00
  -0.00000000  -0.00025164   0.00000000           -0.00      -37.02        0.00
  -0.00000000   0.00000000  -0.00025164           -0.00        0.00      -37.02


     BFGS Geometry Optimization

     number of scf cycles    =   1
     number of bfgs steps    =   0

     enthalpy new            =      -4.1893639725 Ry

     new trust radius        =       0.0131806441 bohr
     new conv_thr            =       0.0000000100 Ry

     new unit-cell volume =    107.68582 a.u.^3 (    15.95739 Ang^3 )
     density =      2.80766 g/cm^3

CELL_PARAMETERS (alat=  7.60000000)
  -0.496854525   0.000000000   0.496854525
   0.000000000   0.496854525   0.496854525
  -0.496854525   0.496854525   0.000000000

ATOMIC_POSITIONS (alat)
Al            0.0000000000        0.0000000000        0.0000000000



     Writing output data file /home/alessandro/scratch/Al_bulk.save/
     NEW-OLD atomic charge density approx. for the potential

     negative rho (up, down):  2.400E-05 0.000E+00
     extrapolated charge    2.94270, renormalised to    3.00000

     total cpu time spent up to now is        1.9 secs

     Self-consistent Calculation

     iteration #  1     ecut=    60.00 Ry     beta= 0.70
     Davidson diagonalization with overlap
     ethr =  1.00E-06,  avg # of iterations =  3.1

     negative rho (up, down):  5.551E-06 0.000E+00

     total cpu time spent up to now is        2.2 secs

     total energy              =      -4.18977171 Ry
     Harris-Foulkes estimate   =      -4.14963123 Ry
     estimated scf accuracy    <       0.00000604 Ry

     iteration #  2     ecut=    60.00 Ry     beta= 0.70
     Davidson diagonalization with overlap
     ethr =  2.01E-07,  avg # of iterations =  1.0

     total cpu time spent up to now is        2.5 secs

     total energy              =      -4.18979047 Ry
     Harris-Foulkes estimate   =      -4.18977198 Ry
     estimated scf accuracy    <       0.00000060 Ry

     iteration #  3     ecut=    60.00 Ry     beta= 0.70
     Davidson diagonalization with overlap
     ethr =  2.01E-08,  avg # of iterations =  1.0

     total cpu time spent up to now is        2.7 secs

     End of self-consistent calculation

          k =-0.0839 0.0839 0.0839 (   881 PWs)   bands (ev):

    -3.0756  18.1100  20.1853  20.1853  22.8347  22.9807

          k =-0.2516 0.2516-0.0839 (   869 PWs)   bands (ev):

    -2.0411  13.7206  16.6706  21.0702  22.3872  23.5929

          k =-0.4193 0.4193-0.2516 (   863 PWs)   bands (ev):

     0.4990   7.7884  16.2113  19.4519  20.8218  21.2399

          k = 0.4193-0.4193 0.5870 (   859 PWs)   bands (ev):

     2.9753   4.4504  17.1052  17.7380  19.4252  21.6807

          k = 0.2516-0.2516 0.4193 (   860 PWs)   bands (ev):

    -0.5094   9.6606  17.2917  18.8992  19.3252  23.8113

          k = 0.0839-0.0839 0.2516 (   881 PWs)   bands (ev):

    -2.5570  15.9349  18.1198  19.4392  21.8797  23.0735

          k =-0.0839 0.4193 0.0839 (   865 PWs)   bands (ev):

    -1.5276  14.1155  16.4198  17.7418  18.5656  20.8027

          k =-0.2516 0.5870-0.0839 (   859 PWs)   bands (ev):

     0.4991  10.4841  13.5963  15.0147  19.0737  22.2370

          k = 0.5870-0.2516 0.7547 (   857 PWs)   bands (ev):

     3.9400   5.4108  12.6368  14.0838  19.7583  23.6148

          k = 0.4193-0.0839 0.5870 (   861 PWs)   bands (ev):

     1.4973   8.6258  11.8534  15.8505  21.5299  22.6624

          k = 0.2516 0.0839 0.4193 (   865 PWs)   bands (ev):

    -1.0172  11.8809  14.9643  18.9410  20.3234  23.2196

          k =-0.0839 0.7547 0.0839 (   857 PWs)   bands (ev):

     1.9892  10.7572  11.8336  14.2998  15.4388  18.8370

          k = 0.7547-0.0839 0.9225 (   859 PWs)   bands (ev):

     4.8437   7.9922   9.1383  12.3286  17.7270  21.0884

          k = 0.5870 0.0839 0.7547 (   858 PWs)   bands (ev):

     4.9001   6.2839   9.5099  13.6093  19.3415  25.6677

          k = 0.4193 0.2516 0.5870 (   860 PWs)   bands (ev):

     1.9929   6.3627  14.8931  16.2926  20.4925  21.9453

          k =-0.0839-0.9225 0.0839 (   856 PWs)   bands (ev):

     4.3691   7.5442  11.3509  13.8784  14.9591  18.4087

          k =-0.2516-0.7547-0.0839 (   862 PWs)   bands (ev):

     2.4815   9.5353  11.2409  12.8154  18.1819  21.4845

          k =-0.0839-0.5870 0.0839 (   856 PWs)   bands (ev):

    -0.0035  12.7236  14.4861  15.1457  16.3912  19.6584

          k =-0.2516 0.2516 0.2516 (   878 PWs)   bands (ev):

    -1.5280  11.5144  19.0049  19.0049  22.5303  22.9038

          k =-0.4193 0.4193 0.0839 (   864 PWs)   bands (ev):

    -0.0038  10.0285  13.2291  19.0230  21.0817  23.0022

          k = 0.4193-0.4193 0.9225 (   858 PWs)   bands (ev):

     2.9757   7.2193  10.4644  16.4445  18.3673  25.6962

          k = 0.2516-0.2516 0.7547 (   863 PWs)   bands (ev):

     2.9713   7.2995  11.7469  15.1545  16.8645  24.2242

          k =-0.2516 0.5870 0.2516 (   864 PWs)   bands (ev):

     0.9994   8.2493  15.3891  16.0070  17.7662  24.8550

          k = 0.5870-0.2516 1.0902 (   860 PWs)   bands (ev):

     3.4587   7.6852  10.8598  12.3280  21.7560  23.2109

          k = 0.4193-0.0839 0.9225 (   868 PWs)   bands (ev):

     5.7833   7.2033   8.9677  10.5989  21.3540  24.1593

          k =-0.2516-1.0902 0.2516 (   861 PWs)   bands (ev):

     5.3118   6.8073   8.5785  14.7299  16.3922  23.8644

          k =-0.4193 0.4193 0.4193 (   865 PWs)   bands (ev):

     1.4977   5.8929  19.0349  19.0349  20.3634  20.3634

          k = 0.4193-0.4193 1.2579 (   855 PWs)   bands (ev):

     3.4613   4.9294  13.5860  16.8746  18.7753  23.4601

     the Fermi energy is     8.0044 ev

!    total energy              =      -4.18979048 Ry
     Harris-Foulkes estimate   =      -4.18979047 Ry
     estimated scf accuracy    <          3.6E-10 Ry

     The total energy is the sum of the following terms:

     one-electron contribution =       2.88891946 Ry
     hartree contribution      =       0.00948981 Ry
     xc contribution           =      -1.62445489 Ry
     ewald contribution        =      -5.46381452 Ry
     smearing contrib. (-TS)   =       0.00006965 Ry

     convergence has been achieved in   3 iterations

     Forces acting on atoms (cartesian axes, Ry/au):

     atom    1 type  1   force =     0.00000000    0.00000000    0.00000000

     Total force =     0.000000     Total SCF correction =     0.000000


     Computing stress (Cartesian axis) and pressure

          total   stress  (Ry/bohr**3)                   (kbar)     P=      -23.71
  -0.00016119  -0.00000000  -0.00000000          -23.71       -0.00       -0.00
  -0.00000000  -0.00016119   0.00000000           -0.00      -23.71        0.00
  -0.00000000   0.00000000  -0.00016119           -0.00        0.00      -23.71


     number of scf cycles    =   2
     number of bfgs steps    =   1

     enthalpy old            =      -4.1893639725 Ry
     enthalpy new            =      -4.1897904819 Ry

     CASE: enthalpy_new < enthalpy_old

     new trust radius        =       0.0197086789 bohr
     new conv_thr            =            1.0E-10 Ry

     new unit-cell volume =    104.64705 a.u.^3 (    15.50709 Ang^3 )
     density =      2.88919 g/cm^3

CELL_PARAMETERS (alat=  7.60000000)
  -0.492136312   0.000000000   0.492136312
  -0.000000000   0.492136312   0.492136312
  -0.492136312   0.492136312   0.000000000

ATOMIC_POSITIONS (alat)
Al           -0.0000000000        0.0000000000        0.0000000000



     Writing output data file /home/alessandro/scratch/Al_bulk.save/
     NEW-OLD atomic charge density approx. for the potential

     negative rho (up, down):  3.631E-05 0.000E+00
     extrapolated charge    2.91294, renormalised to    3.00000

     total cpu time spent up to now is        2.9 secs

     Self-consistent Calculation

     iteration #  1     ecut=    60.00 Ry     beta= 0.70
     Davidson diagonalization with overlap
     ethr =  1.00E-06,  avg # of iterations =  3.1

     negative rho (up, down):  9.524E-06 0.000E+00

     total cpu time spent up to now is        3.3 secs

     total energy              =      -4.19001125 Ry
     Harris-Foulkes estimate   =      -4.12845793 Ry
     estimated scf accuracy    <       0.00001420 Ry

     iteration #  2     ecut=    60.00 Ry     beta= 0.70
     Davidson diagonalization with overlap
     ethr =  4.73E-07,  avg # of iterations =  1.0

     total cpu time spent up to now is        3.5 secs

     total energy              =      -4.19005372 Ry
     Harris-Foulkes estimate   =      -4.19001192 Ry
     estimated scf accuracy    <       0.00000148 Ry

     iteration #  3     ecut=    60.00 Ry     beta= 0.70
     Davidson diagonalization with overlap
     ethr =  4.92E-08,  avg # of iterations =  1.0

     total cpu time spent up to now is        3.7 secs

     total energy              =      -4.19005374 Ry
     Harris-Foulkes estimate   =      -4.19005373 Ry
     estimated scf accuracy    <          5.1E-10 Ry

     iteration #  4     ecut=    60.00 Ry     beta= 0.70
     Davidson diagonalization with overlap
     ethr =  1.69E-11,  avg # of iterations =  2.1

     total cpu time spent up to now is        4.0 secs

     End of self-consistent calculation

          k =-0.0847 0.0847 0.0847 (   881 PWs)   bands (ev):

    -2.9742  18.5716  20.6870  20.6870  23.4355  23.6119

          k =-0.2540 0.2540-0.0847 (   869 PWs)   bands (ev):

    -1.9198  14.1067  17.1379  21.6120  22.9625  24.1914

          k =-0.4233 0.4233-0.2540 (   863 PWs)   bands (ev):

     0.6669   8.0823  16.6665  19.9839  21.3372  21.7818

          k = 0.4233-0.4233 0.5927 (   859 PWs)   bands (ev):

     3.1827   4.6932  17.5686  18.2280  19.9433  22.2277

          k = 0.2540-0.2540 0.4233 (   860 PWs)   bands (ev):

    -0.3597   9.9847  17.7728  19.3706  19.8599  24.3989

          k = 0.0847-0.0847 0.2540 (   881 PWs)   bands (ev):

    -2.4455  16.3582  18.6089  19.9173  22.5370  23.5852

          k =-0.0847 0.4233 0.0847 (   865 PWs)   bands (ev):

    -1.3967  14.5045  16.8870  18.1751  19.0690  21.3956

          k =-0.2540 0.5927-0.0847 (   859 PWs)   bands (ev):

     0.6669  10.8127  13.9967  15.4673  19.5628  22.8407

          k = 0.5927-0.2540 0.7620 (   857 PWs)   bands (ev):

     4.1615   5.6694  13.0104  14.5301  20.2799  24.1986

          k = 0.4233-0.0847 0.5927 (   861 PWs)   bands (ev):

     1.6823   8.9254  12.2368  16.3114  22.0917  23.2088

          k = 0.2540 0.0847 0.4233 (   865 PWs)   bands (ev):

    -0.8768  12.2346  15.4030  19.4511  20.8309  23.8315

          k =-0.0847 0.7620 0.0847 (   857 PWs)   bands (ev):

     2.1826  11.0924  12.1896  14.7393  15.8557  19.4129

          k = 0.7620-0.0847 0.9313 (   859 PWs)   bands (ev):

     5.0798   8.2809   9.4627  12.7457  18.1925  21.6772

          k = 0.5927 0.0847 0.7620 (   858 PWs)   bands (ev):

     5.1354   6.5502   9.8518  14.0377  19.8552  26.2879

          k = 0.4233 0.2540 0.5927 (   860 PWs)   bands (ev):

     2.1862   6.6334  15.3149  16.7640  21.0294  22.4958

          k =-0.0847-0.9313 0.0847 (   856 PWs)   bands (ev):

     4.5984   7.8388  11.6924  14.3126  15.3674  18.9775

          k =-0.2540-0.7620-0.0847 (   862 PWs)   bands (ev):

     2.6829   9.8432  11.5880  13.2524  18.6553  22.0788

          k =-0.0847-0.5927 0.0847 (   856 PWs)   bands (ev):

     0.1553  13.0839  14.8891  15.5960  16.8283  20.2458

          k =-0.2540 0.2540 0.2540 (   878 PWs)   bands (ev):

    -1.3971  11.8692  19.5124  19.5124  23.0982  23.4780

          k =-0.4233 0.4233 0.0847 (   864 PWs)   bands (ev):

     0.1550  10.3514  13.6396  19.5419  21.6231  23.5510

          k = 0.4233-0.4233 0.9313 (   858 PWs)   bands (ev):

     3.1849   7.4971  10.8257  16.9162  18.8652  26.3077

          k = 0.2540-0.2540 0.7620 (   863 PWs)   bands (ev):

     3.1805   7.5826  12.1174  15.6059  17.3337  24.8463

          k =-0.2540 0.5927 0.2540 (   864 PWs)   bands (ev):

     1.1759   8.5493  15.8122  16.4698  18.2584  25.4925

          k = 0.5927-0.2540 1.1006 (   860 PWs)   bands (ev):

     3.6756   7.9690  11.2029  12.7555  22.3022  23.7939

          k = 0.4233-0.0847 0.9313 (   868 PWs)   bands (ev):

     6.0303   7.4751   9.2765  11.0141  21.8889  24.7894

          k =-0.2540-1.1006 0.2540 (   861 PWs)   bands (ev):

     5.5520   7.0755   8.9141  15.1759  16.8503  24.4801

          k =-0.4233 0.4233 0.4233 (   865 PWs)   bands (ev):

     1.6829   6.1567  19.5502  19.5502  20.8833  20.8833

          k = 0.4233-0.4233 1.2700 (   855 PWs)   bands (ev):

     3.6758   5.1803  13.9904  17.3520  19.2814  24.0358

     the Fermi energy is     8.2959 ev

!    total energy              =      -4.19005374 Ry
     Harris-Foulkes estimate   =      -4.19005374 Ry
     estimated scf accuracy    <          5.4E-11 Ry

     The total energy is the sum of the following terms:

     one-electron contribution =       2.95486845 Ry
     hartree contribution      =       0.00999654 Ry
     xc contribution           =      -1.63880046 Ry
     ewald contribution        =      -5.51619724 Ry
     smearing contrib. (-TS)   =       0.00007897 Ry

     convergence has been achieved in   4 iterations

     Forces acting on atoms (cartesian axes, Ry/au):

     atom    1 type  1   force =     0.00000000    0.00000000    0.00000000

     Total force =     0.000000     Total SCF correction =     0.000000


     Computing stress (Cartesian axis) and pressure

          total   stress  (Ry/bohr**3)                   (kbar)     P=       -1.19
  -0.00000806   0.00000000   0.00000000           -1.19        0.00        0.00
   0.00000000  -0.00000806  -0.00000000            0.00       -1.19       -0.00
   0.00000000  -0.00000000  -0.00000806            0.00       -0.00       -1.19


     number of scf cycles    =   3
     number of bfgs steps    =   2

     enthalpy old            =      -4.1897904819 Ry
     enthalpy new            =      -4.1900537405 Ry

     CASE: enthalpy_new < enthalpy_old

     new trust radius        =       0.0010120151 bohr
     new conv_thr            =            1.0E-10 Ry

     new unit-cell volume =    104.49184 a.u.^3 (    15.48409 Ang^3 )
     density =      2.89349 g/cm^3

CELL_PARAMETERS (alat=  7.60000000)
  -0.491892880   0.000000000   0.491892880
  -0.000000000   0.491892880   0.491892880
  -0.491892880   0.491892880   0.000000000

ATOMIC_POSITIONS (alat)
Al           -0.0000000000        0.0000000000        0.0000000000



     Writing output data file /home/alessandro/scratch/Al_bulk.save/
     NEW-OLD atomic charge density approx. for the potential
     extrapolated charge    2.99555, renormalised to    3.00000

     total cpu time spent up to now is        4.2 secs

     Self-consistent Calculation

     iteration #  1     ecut=    60.00 Ry     beta= 0.70
     Davidson diagonalization with overlap
     ethr =  1.00E-06,  avg # of iterations =  1.0

     Threshold (ethr) on eigenvalues was too large:
     Diagonalizing with lowered threshold

     Davidson diagonalization with overlap
     ethr =  1.12E-09,  avg # of iterations =  2.1

     total cpu time spent up to now is        4.7 secs

     total energy              =      -4.19005422 Ry
     Harris-Foulkes estimate   =      -4.18691237 Ry
     estimated scf accuracy    <       0.00000003 Ry

     iteration #  2     ecut=    60.00 Ry     beta= 0.70
     Davidson diagonalization with overlap
     ethr =  1.08E-09,  avg # of iterations =  1.0

     total cpu time spent up to now is        4.9 secs

     total energy              =      -4.19005433 Ry
     Harris-Foulkes estimate   =      -4.19005422 Ry
     estimated scf accuracy    <          3.4E-09 Ry

     iteration #  3     ecut=    60.00 Ry     beta= 0.70
     Davidson diagonalization with overlap
     ethr =  1.13E-10,  avg # of iterations =  1.0

     total cpu time spent up to now is        5.2 secs

     End of self-consistent calculation

          k =-0.0847 0.0847 0.0847 (   881 PWs)   bands (ev):

    -2.9688  18.5957  20.7132  20.7132  23.4670  23.6451

          k =-0.2541 0.2541-0.0847 (   869 PWs)   bands (ev):

    -1.9135  14.1268  17.1623  21.6401  22.9928  24.2227

          k =-0.4235 0.4235-0.2541 (   863 PWs)   bands (ev):

     0.6757   8.0977  16.6903  20.0116  21.3644  21.8102

          k = 0.4235-0.4235 0.5929 (   859 PWs)   bands (ev):

     3.1936   4.7060  17.5928  18.2536  19.9706  22.2565

          k = 0.2541-0.2541 0.4235 (   860 PWs)   bands (ev):

    -0.3518  10.0017  17.7979  19.3947  19.8885  24.4297

          k = 0.0847-0.0847 0.2541 (   881 PWs)   bands (ev):

    -2.4397  16.3803  18.6345  19.9423  22.5715  23.6120

          k =-0.0847 0.4235 0.0847 (   865 PWs)   bands (ev):

    -1.3898  14.5248  16.9114  18.1977  19.0953  21.4270

          k =-0.2541 0.5929-0.0847 (   859 PWs)   bands (ev):

     0.6757  10.8299  14.0176  15.4911  19.5885  22.8724

          k = 0.5929-0.2541 0.7624 (   857 PWs)   bands (ev):

     4.1730   5.6830  13.0299  14.5536  20.3073  24.2292

          k = 0.4235-0.0847 0.5929 (   861 PWs)   bands (ev):

     1.6920   8.9411  12.2569  16.3356  22.1211  23.2374

          k = 0.2541 0.0847 0.4235 (   865 PWs)   bands (ev):

    -0.8694  12.2531  15.4259  19.4776  20.8576  23.8636

          k =-0.0847 0.7624 0.0847 (   857 PWs)   bands (ev):

     2.1927  11.1099  12.2082  14.7623  15.8776  19.4432

          k = 0.7624-0.0847 0.9318 (   859 PWs)   bands (ev):

     5.0921   8.2960   9.4797  12.7677  18.2169  21.7081

          k = 0.5929 0.0847 0.7624 (   858 PWs)   bands (ev):

     5.1477   6.5641   9.8697  14.0602  19.8821  26.3204

          k = 0.4235 0.2541 0.5929 (   860 PWs)   bands (ev):

     2.1964   6.6476  15.3369  16.7887  21.0576  22.5247

          k =-0.0847-0.9318 0.0847 (   856 PWs)   bands (ev):

     4.6104   7.8542  11.7103  14.3354  15.3888  19.0075

          k =-0.2541-0.7624-0.0847 (   862 PWs)   bands (ev):

     2.6935   9.8593  11.6061  13.2754  18.6801  22.1101

          k =-0.0847-0.5929 0.0847 (   856 PWs)   bands (ev):

     0.1636  13.1027  14.9100  15.6196  16.8513  20.2768

          k =-0.2541 0.2541 0.2541 (   878 PWs)   bands (ev):

    -1.3902  11.8878  19.5390  19.5390  23.1279  23.5081

          k =-0.4235 0.4235 0.0847 (   864 PWs)   bands (ev):

     0.1634  10.3683  13.6610  19.5690  21.6515  23.5798

          k = 0.4235-0.4235 0.9318 (   858 PWs)   bands (ev):

     3.1959   7.5117  10.8446  16.9409  18.8913  26.3398

          k = 0.2541-0.2541 0.7624 (   863 PWs)   bands (ev):

     3.1915   7.5975  12.1368  15.6296  17.3584  24.8789

          k =-0.2541 0.5929 0.2541 (   864 PWs)   bands (ev):

     1.1852   8.5650  15.8342  16.4940  18.2844  25.5259

          k = 0.5929-0.2541 1.1012 (   860 PWs)   bands (ev):

     3.6869   7.9838  11.2208  12.7781  22.3308  23.8245

          k = 0.4235-0.0847 0.9318 (   868 PWs)   bands (ev):

     6.0432   7.4893   9.2925  11.0361  21.9169  24.8224

          k =-0.2541-1.1012 0.2541 (   861 PWs)   bands (ev):

     5.5646   7.0895   8.9317  15.1993  16.8744  24.5124

          k =-0.4235 0.4235 0.4235 (   865 PWs)   bands (ev):

     1.6926   6.1705  19.5770  19.5770  20.9108  20.9108

          k = 0.4235-0.4235 1.2706 (   855 PWs)   bands (ev):

     3.6870   5.1934  14.0115  17.3770  19.3080  24.0660

     the Fermi energy is     8.3111 ev

!    total energy              =      -4.19005433 Ry
     Harris-Foulkes estimate   =      -4.19005433 Ry
     estimated scf accuracy    <          7.1E-13 Ry

     The total energy is the sum of the following terms:

     one-electron contribution =       2.95831786 Ry
     hartree contribution      =       0.01002539 Ry
     xc contribution           =      -1.63954973 Ry
     ewald contribution        =      -5.51892714 Ry
     smearing contrib. (-TS)   =       0.00007929 Ry

     convergence has been achieved in   3 iterations

     Forces acting on atoms (cartesian axes, Ry/au):

     atom    1 type  1   force =     0.00000000    0.00000000    0.00000000

     Total force =     0.000000     Total SCF correction =     0.000000


     Computing stress (Cartesian axis) and pressure

          total   stress  (Ry/bohr**3)                   (kbar)     P=        0.06
   0.00000043  -0.00000000   0.00000000            0.06       -0.00        0.00
  -0.00000000   0.00000043  -0.00000000           -0.00        0.06       -0.00
   0.00000000  -0.00000000   0.00000043            0.00       -0.00        0.06


     bfgs converged in   4 scf cycles and   3 bfgs steps
     (criteria: energy <  1.0E-04 Ry, force <  1.0E-05Ry/Bohr, cell <  5.0E-01kbar)

     End of BFGS Geometry Optimization

     Final enthalpy =      -4.1900543330 Ry
Begin final coordinates
     new unit-cell volume =    104.49184 a.u.^3 (    15.48409 Ang^3 )
     density =      2.89349 g/cm^3

CELL_PARAMETERS (alat=  7.60000000)
  -0.491892880   0.000000000   0.491892880
  -0.000000000   0.491892880   0.491892880
  -0.491892880   0.491892880   0.000000000

ATOMIC_POSITIONS (alat)
Al           -0.0000000000        0.0000000000        0.0000000000
End final coordinates



     Writing output data file /home/alessandro/scratch/Al_bulk.save/

     Final scf calculation at the relaxed structure.
     The G-vectors are recalculated for the final unit cell
     Results may differ from those at the preceding step.

     G-vector sticks info
     --------------------
     sticks:   dense  smooth     PW     G-vecs:    dense   smooth      PW
     Sum         463     463    151                 6567     6567    1243



     bravais-lattice index     =            2
     lattice parameter (alat)  =       7.6000  a.u.
     unit-cell volume          =     104.4918 (a.u.)^3
     number of atoms/cell      =            1
     number of atomic types    =            1
     number of electrons       =         3.00
     number of Kohn-Sham states=            6
     kinetic-energy cutoff     =      60.0000  Ry
     charge density cutoff     =     240.0000  Ry
     convergence threshold     =      1.0E-10
     mixing beta               =       0.7000
     number of iterations used =            8  plain     mixing
     Exchange-correlation= SLA PZ NOGX NOGC
                           (   1   1   0   0   0   0   0)

     celldm(1)=   7.600000  celldm(2)=   0.000000  celldm(3)=   0.000000
     celldm(4)=   0.000000  celldm(5)=   0.000000  celldm(6)=   0.000000

     crystal axes: (cart. coord. in units of alat)
               a(1) = (  -0.491893   0.000000   0.491893 )  
               a(2) = (  -0.000000   0.491893   0.491893 )  
               a(3) = (  -0.491893   0.491893   0.000000 )  

     reciprocal axes: (cart. coord. in units 2 pi/alat)
               b(1) = ( -1.016481 -1.016481  1.016481 )  
               b(2) = (  1.016481  1.016481  1.016481 )  
               b(3) = ( -1.016481  1.016481 -1.016481 )  


     PseudoPot. # 1 for Al read from file:
     /home/alessandro/Quantum-Espresso/qe-6.5/pseudo/Al.pz-vbc.UPF
     MD5 check sum: f06ceae8da0fe5c02c98e3688433298c
     Pseudo is Norm-conserving, Zval =  3.0
     Generated by new atomic code, or converted to UPF format
     Using radial grid of  171 points,  2 beta functions with: 
                l(1) =   0
                l(2) =   1

     atomic species   valence    mass     pseudopotential
        Al             3.00    26.98100     Al( 1.00)

     48 Sym. Ops., with inversion, found



   Cartesian axes

     site n.     atom                  positions (alat units)
         1           Al  tau(   1) = (  -0.0000000   0.0000000   0.0000000  )

     number of k points=    28  Methfessel-Paxton smearing, width (Ry)=  0.0500
                       cart. coord. in units 2pi/alat
        k(    1) = (  -0.0847068   0.0847068   0.0847068), wk =   0.0185185
        k(    2) = (  -0.2541204   0.2541204  -0.0847068), wk =   0.0555556
        k(    3) = (  -0.4235339   0.4235339  -0.2541204), wk =   0.0555556
        k(    4) = (   0.4235339  -0.4235339   0.5929475), wk =   0.0555556
        k(    5) = (   0.2541204  -0.2541204   0.4235339), wk =   0.0555556
        k(    6) = (   0.0847068  -0.0847068   0.2541204), wk =   0.0555556
        k(    7) = (  -0.0847068   0.4235339   0.0847068), wk =   0.0555556
        k(    8) = (  -0.2541204   0.5929475  -0.0847068), wk =   0.1111111
        k(    9) = (   0.5929475  -0.2541204   0.7623611), wk =   0.1111111
        k(   10) = (   0.4235339  -0.0847068   0.5929475), wk =   0.1111111
        k(   11) = (   0.2541204   0.0847068   0.4235339), wk =   0.1111111
        k(   12) = (  -0.0847068   0.7623611   0.0847068), wk =   0.0555556
        k(   13) = (   0.7623611  -0.0847068   0.9317747), wk =   0.1111111
        k(   14) = (   0.5929475   0.0847068   0.7623611), wk =   0.1111111
        k(   15) = (   0.4235339   0.2541204   0.5929475), wk =   0.1111111
        k(   16) = (  -0.0847068  -0.9317747   0.0847068), wk =   0.0555556
        k(   17) = (  -0.2541204  -0.7623611  -0.0847068), wk =   0.1111111
        k(   18) = (  -0.0847068  -0.5929475   0.0847068), wk =   0.0555556
        k(   19) = (  -0.2541204   0.2541204   0.2541204), wk =   0.0185185
        k(   20) = (  -0.4235339   0.4235339   0.0847068), wk =   0.0555556
        k(   21) = (   0.4235339  -0.4235339   0.9317747), wk =   0.0555556
        k(   22) = (   0.2541204  -0.2541204   0.7623611), wk =   0.0555556
        k(   23) = (  -0.2541204   0.5929475   0.2541204), wk =   0.0555556
        k(   24) = (   0.5929475  -0.2541204   1.1011883), wk =   0.1111111
        k(   25) = (   0.4235339  -0.0847068   0.9317747), wk =   0.1111111
        k(   26) = (  -0.2541204  -1.1011883   0.2541204), wk =   0.0555556
        k(   27) = (  -0.4235339   0.4235339   0.4235339), wk =   0.0185185
        k(   28) = (   0.4235339  -0.4235339   1.2706018), wk =   0.0555556

     Dense  grid:     6567 G-vectors     FFT dimensions: (  27,  27,  27)

     Estimated max dynamical RAM per process >       7.25 MB

     Initial potential from superposition of free atoms

     starting charge    2.99794, renormalised to    3.00000
     Starting wfcs are    4 randomized atomic wfcs +    2 random wfcs

     total cpu time spent up to now is        5.4 secs

     Self-consistent Calculation

     iteration #  1     ecut=    60.00 Ry     beta= 0.70
     Davidson diagonalization with overlap
     ethr =  1.00E-06,  avg # of iterations = 10.9

     total cpu time spent up to now is        6.3 secs

     total energy              =      -4.18989466 Ry
     Harris-Foulkes estimate   =      -4.18902059 Ry
     estimated scf accuracy    <       0.00576266 Ry

     iteration #  2     ecut=    60.00 Ry     beta= 0.70
     Davidson diagonalization with overlap
     ethr =  1.92E-04,  avg # of iterations =  1.0

     total cpu time spent up to now is        6.5 secs

     total energy              =      -4.19005101 Ry
     Harris-Foulkes estimate   =      -4.18991583 Ry
     estimated scf accuracy    <       0.00045163 Ry

     iteration #  3     ecut=    60.00 Ry     beta= 0.70
     Davidson diagonalization with overlap
     ethr =  1.51E-05,  avg # of iterations =  1.0

     total cpu time spent up to now is        6.8 secs

     total energy              =      -4.19005424 Ry
     Harris-Foulkes estimate   =      -4.19005398 Ry
     estimated scf accuracy    <       0.00000029 Ry

     iteration #  4     ecut=    60.00 Ry     beta= 0.70
     Davidson diagonalization with overlap
     ethr =  9.54E-09,  avg # of iterations =  1.4

     total cpu time spent up to now is        7.0 secs

     total energy              =      -4.19005427 Ry
     Harris-Foulkes estimate   =      -4.19005427 Ry
     estimated scf accuracy    <          4.3E-09 Ry

     iteration #  5     ecut=    60.00 Ry     beta= 0.70
     Davidson diagonalization with overlap
     ethr =  1.43E-10,  avg # of iterations =  1.4

     total cpu time spent up to now is        7.3 secs

     End of self-consistent calculation

          k =-0.0847 0.0847 0.0847 (   845 PWs)   bands (ev):

    -2.9688  18.5957  20.7132  20.7132  23.4670  23.6451

          k =-0.2541 0.2541-0.0847 (   826 PWs)   bands (ev):

    -1.9135  14.1268  17.1623  21.6401  22.9928  24.2227

          k =-0.4235 0.4235-0.2541 (   820 PWs)   bands (ev):

     0.6757   8.0977  16.6903  20.0116  21.3644  21.8102

          k = 0.4235-0.4235 0.5929 (   819 PWs)   bands (ev):

     3.1936   4.7060  17.5928  18.2536  19.9706  22.2565

          k = 0.2541-0.2541 0.4235 (   826 PWs)   bands (ev):

    -0.3518  10.0017  17.7979  19.3947  19.8885  24.4297

          k = 0.0847-0.0847 0.2541 (   834 PWs)   bands (ev):

    -2.4397  16.3803  18.6345  19.9423  22.5715  23.6120

          k =-0.0847 0.4235 0.0847 (   832 PWs)   bands (ev):

    -1.3898  14.5248  16.9114  18.1977  19.0953  21.4270

          k =-0.2541 0.5929-0.0847 (   823 PWs)   bands (ev):

     0.6757  10.8299  14.0176  15.4911  19.5885  22.8724

          k = 0.5929-0.2541 0.7624 (   817 PWs)   bands (ev):

     4.1730   5.6830  13.0299  14.5536  20.3073  24.2292

          k = 0.4235-0.0847 0.5929 (   820 PWs)   bands (ev):

     1.6920   8.9411  12.2569  16.3356  22.1211  23.2374

          k = 0.2541 0.0847 0.4235 (   829 PWs)   bands (ev):

    -0.8694  12.2531  15.4259  19.4776  20.8576  23.8636

          k =-0.0847 0.7624 0.0847 (   815 PWs)   bands (ev):

     2.1927  11.1099  12.2082  14.7623  15.8776  19.4432

          k = 0.7624-0.0847 0.9318 (   812 PWs)   bands (ev):

     5.0921   8.2960   9.4797  12.7677  18.2169  21.7081

          k = 0.5929 0.0847 0.7624 (   817 PWs)   bands (ev):

     5.1477   6.5641   9.8697  14.0602  19.8821  26.3204

          k = 0.4235 0.2541 0.5929 (   817 PWs)   bands (ev):

     2.1964   6.6476  15.3369  16.7887  21.0575  22.5247

          k =-0.0847-0.9318 0.0847 (   809 PWs)   bands (ev):

     4.6104   7.8542  11.7103  14.3354  15.3888  19.0075

          k =-0.2541-0.7624-0.0847 (   814 PWs)   bands (ev):

     2.6935   9.8593  11.6061  13.2754  18.6801  22.1101

          k =-0.0847-0.5929 0.0847 (   830 PWs)   bands (ev):

     0.1636  13.1027  14.9100  15.6196  16.8513  20.2768

          k =-0.2541 0.2541 0.2541 (   821 PWs)   bands (ev):

    -1.3902  11.8878  19.5390  19.5390  23.1279  23.5081

          k =-0.4235 0.4235 0.0847 (   820 PWs)   bands (ev):

     0.1634  10.3683  13.6610  19.5690  21.6515  23.5798

          k = 0.4235-0.4235 0.9318 (   819 PWs)   bands (ev):

     3.1959   7.5117  10.8446  16.9409  18.8913  26.3398

          k = 0.2541-0.2541 0.7624 (   818 PWs)   bands (ev):

     3.1915   7.5975  12.1368  15.6296  17.3584  24.8789

          k =-0.2541 0.5929 0.2541 (   820 PWs)   bands (ev):

     1.1852   8.5650  15.8342  16.4940  18.2844  25.5259

          k = 0.5929-0.2541 1.1012 (   817 PWs)   bands (ev):

     3.6869   7.9838  11.2207  12.7781  22.3308  23.8245

          k = 0.4235-0.0847 0.9318 (   813 PWs)   bands (ev):

     6.0432   7.4893   9.2925  11.0361  21.9169  24.8224

          k =-0.2541-1.1012 0.2541 (   818 PWs)   bands (ev):

     5.5646   7.0895   8.9317  15.1993  16.8744  24.5124

          k =-0.4235 0.4235 0.4235 (   820 PWs)   bands (ev):

     1.6926   6.1705  19.5770  19.5770  20.9108  20.9108

          k = 0.4235-0.4235 1.2706 (   825 PWs)   bands (ev):

     3.6870   5.1934  14.0115  17.3770  19.3080  24.0660

     the Fermi energy is     8.3111 ev

!    total energy              =      -4.19005427 Ry
     Harris-Foulkes estimate   =      -4.19005427 Ry
     estimated scf accuracy    <          1.5E-11 Ry

     The total energy is the sum of the following terms:

     one-electron contribution =       2.95831790 Ry
     hartree contribution      =       0.01002537 Ry
     xc contribution           =      -1.63954969 Ry
     ewald contribution        =      -5.51892715 Ry
     smearing contrib. (-TS)   =       0.00007929 Ry

     convergence has been achieved in   5 iterations

     Forces acting on atoms (cartesian axes, Ry/au):

     atom    1 type  1   force =     0.00000000    0.00000000    0.00000000

     Total force =     0.000000     Total SCF correction =     0.000000


     Computing stress (Cartesian axis) and pressure

          total   stress  (Ry/bohr**3)                   (kbar)     P=        0.06
   0.00000042  -0.00000000  -0.00000000            0.06       -0.00       -0.00
  -0.00000000   0.00000042   0.00000000           -0.00        0.06        0.00
  -0.00000000   0.00000000   0.00000042           -0.00        0.00        0.06


     Writing output data file /home/alessandro/scratch/Al_bulk.save/

     init_run     :      0.29s CPU      0.29s WALL (       2 calls)
     electrons    :      6.28s CPU      6.37s WALL (       5 calls)
     update_pot   :      0.10s CPU      0.10s WALL (       3 calls)
     forces       :      0.10s CPU      0.10s WALL (       5 calls)
     stress       :      0.42s CPU      0.43s WALL (       5 calls)

     Called by init_run:
     wfcinit      :      0.20s CPU      0.20s WALL (       2 calls)
     potinit      :      0.03s CPU      0.03s WALL (       2 calls)
     hinit0       :      0.05s CPU      0.05s WALL (       2 calls)

     Called by electrons:
     c_bands      :      5.25s CPU      5.33s WALL (      21 calls)
     sum_band     :      0.99s CPU      0.99s WALL (      21 calls)
     v_of_rho     :      0.03s CPU      0.03s WALL (      24 calls)
     mix_rho      :      0.01s CPU      0.01s WALL (      21 calls)

     Called by c_bands:
     init_us_2    :      0.16s CPU      0.16s WALL (    1512 calls)
     cegterg      :      5.14s CPU      5.18s WALL (     588 calls)

     Called by sum_band:

     Called by *egterg:
     h_psi        :      4.81s CPU      4.85s WALL (    1893 calls)
     g_psi        :      0.02s CPU      0.02s WALL (    1249 calls)
     cdiaghg      :      0.08s CPU      0.08s WALL (    1697 calls)

     Called by h_psi:
     h_psi:calbec :      0.04s CPU      0.05s WALL (    1893 calls)
     vloc_psi     :      4.71s CPU      4.75s WALL (    1893 calls)
     add_vuspsi   :      0.04s CPU      0.04s WALL (    1893 calls)

     General routines
     calbec       :      0.06s CPU      0.06s WALL (    2593 calls)
     fft          :      0.04s CPU      0.04s WALL (      97 calls)
     ffts         :      0.01s CPU      0.01s WALL (      21 calls)
     fftw         :      5.22s CPU      5.26s WALL (   22510 calls)

     Parallel routines

     PWSCF        :      7.27s CPU      7.37s WALL


   This run was terminated on:  20:52:36   6Jun2020            

=------------------------------------------------------------------------------=
   JOB DONE.
=------------------------------------------------------------------------------=
