
     Program PWSCF v.6.5 starts on  8Jun2020 at 11:22:31 

     This program is part of the open-source Quantum ESPRESSO suite
     for quantum simulation of materials; please cite
         "P. Giannozzi et al., J. Phys.:Condens. Matter 21 395502 (2009);
         "P. Giannozzi et al., J. Phys.:Condens. Matter 29 465901 (2017);
          URL http://www.quantum-espresso.org", 
     in publications or presentations arising from this work. More details at
     http://www.quantum-espresso.org/quote

     Parallel version (MPI), running on     1 processors

     MPI processes distributed on     1 nodes
     Waiting for input...
     Reading input from standard input

     Current dimensions of program PWSCF are:
     Max number of different atomic species (ntypx) = 10
     Max number of k-points (npk) =  40000
     Max angular momentum in pseudopotentials (lmaxx) =  3

     Subspace diagonalization in iterative solution of the eigenvalue problem:
     a serial algorithm will be used


     G-vector sticks info
     --------------------
     sticks:   dense  smooth     PW     G-vecs:    dense   smooth      PW
     Sum         475     475    163                 6855     6855    1291



     bravais-lattice index     =            2
     lattice parameter (alat)  =       7.6000  a.u.
     unit-cell volume          =     109.7440 (a.u.)^3
     number of atoms/cell      =            1
     number of atomic types    =            1
     number of electrons       =         3.00
     number of Kohn-Sham states=            6
     kinetic-energy cutoff     =      60.0000  Ry
     charge density cutoff     =     240.0000  Ry
     convergence threshold     =      1.0E-08
     mixing beta               =       0.7000
     number of iterations used =            8  plain     mixing
     Exchange-correlation= SLA PZ NOGX NOGC
                           (   1   1   0   0   0   0   0)

     celldm(1)=   7.600000  celldm(2)=   0.000000  celldm(3)=   0.000000
     celldm(4)=   0.000000  celldm(5)=   0.000000  celldm(6)=   0.000000

     crystal axes: (cart. coord. in units of alat)
               a(1) = (  -0.500000   0.000000   0.500000 )  
               a(2) = (   0.000000   0.500000   0.500000 )  
               a(3) = (  -0.500000   0.500000   0.000000 )  

     reciprocal axes: (cart. coord. in units 2 pi/alat)
               b(1) = ( -1.000000 -1.000000  1.000000 )  
               b(2) = (  1.000000  1.000000  1.000000 )  
               b(3) = ( -1.000000  1.000000 -1.000000 )  


     PseudoPot. # 1 for Al read from file:
     /home/alessandro/Quantum-Espresso/qe-6.5/pseudo/Al.pz-vbc.UPF
     MD5 check sum: f06ceae8da0fe5c02c98e3688433298c
     Pseudo is Norm-conserving, Zval =  3.0
     Generated by new atomic code, or converted to UPF format
     Using radial grid of  171 points,  2 beta functions with: 
                l(1) =   0
                l(2) =   1

     atomic species   valence    mass     pseudopotential
        Al             3.00    26.98100     Al( 1.00)

     48 Sym. Ops., with inversion, found



   Cartesian axes

     site n.     atom                  positions (alat units)
         1           Al  tau(   1) = (   0.0000000   0.0000000   0.0000000  )

     number of k points=    28  Methfessel-Paxton smearing, width (Ry)=  0.0500
                       cart. coord. in units 2pi/alat
        k(    1) = (  -0.0833333   0.0833333   0.0833333), wk =   0.0185185
        k(    2) = (  -0.2500000   0.2500000  -0.0833333), wk =   0.0555556
        k(    3) = (  -0.4166667   0.4166667  -0.2500000), wk =   0.0555556
        k(    4) = (   0.4166667  -0.4166667   0.5833333), wk =   0.0555556
        k(    5) = (   0.2500000  -0.2500000   0.4166667), wk =   0.0555556
        k(    6) = (   0.0833333  -0.0833333   0.2500000), wk =   0.0555556
        k(    7) = (  -0.0833333   0.4166667   0.0833333), wk =   0.0555556
        k(    8) = (  -0.2500000   0.5833333  -0.0833333), wk =   0.1111111
        k(    9) = (   0.5833333  -0.2500000   0.7500000), wk =   0.1111111
        k(   10) = (   0.4166667  -0.0833333   0.5833333), wk =   0.1111111
        k(   11) = (   0.2500000   0.0833333   0.4166667), wk =   0.1111111
        k(   12) = (  -0.0833333   0.7500000   0.0833333), wk =   0.0555556
        k(   13) = (   0.7500000  -0.0833333   0.9166667), wk =   0.1111111
        k(   14) = (   0.5833333   0.0833333   0.7500000), wk =   0.1111111
        k(   15) = (   0.4166667   0.2500000   0.5833333), wk =   0.1111111
        k(   16) = (  -0.0833333  -0.9166667   0.0833333), wk =   0.0555556
        k(   17) = (  -0.2500000  -0.7500000  -0.0833333), wk =   0.1111111
        k(   18) = (  -0.0833333  -0.5833333   0.0833333), wk =   0.0555556
        k(   19) = (  -0.2500000   0.2500000   0.2500000), wk =   0.0185185
        k(   20) = (  -0.4166667   0.4166667   0.0833333), wk =   0.0555556
        k(   21) = (   0.4166667  -0.4166667   0.9166667), wk =   0.0555556
        k(   22) = (   0.2500000  -0.2500000   0.7500000), wk =   0.0555556
        k(   23) = (  -0.2500000   0.5833333   0.2500000), wk =   0.0555556
        k(   24) = (   0.5833333  -0.2500000   1.0833333), wk =   0.1111111
        k(   25) = (   0.4166667  -0.0833333   0.9166667), wk =   0.1111111
        k(   26) = (  -0.2500000  -1.0833333   0.2500000), wk =   0.0555556
        k(   27) = (  -0.4166667   0.4166667   0.4166667), wk =   0.0185185
        k(   28) = (   0.4166667  -0.4166667   1.2500000), wk =   0.0555556

     Dense  grid:     6855 G-vectors     FFT dimensions: (  27,  27,  27)

     Estimated max dynamical RAM per process >       7.33 MB

     Initial potential from superposition of free atoms

     starting charge    2.99794, renormalised to    3.00000
     Starting wfcs are    4 randomized atomic wfcs +    2 random wfcs

     total cpu time spent up to now is        0.2 secs

     Self-consistent Calculation

     iteration #  1     ecut=    60.00 Ry     beta= 0.70
     Davidson diagonalization with overlap
     ethr =  1.00E-02,  avg # of iterations =  5.2

     Threshold (ethr) on eigenvalues was too large:
     Diagonalizing with lowered threshold

     Davidson diagonalization with overlap
     ethr =  1.91E-04,  avg # of iterations =  1.8

     total cpu time spent up to now is        0.9 secs

     total energy              =      -4.18921374 Ry
     Harris-Foulkes estimate   =      -4.18851116 Ry
     estimated scf accuracy    <       0.00571887 Ry

     iteration #  2     ecut=    60.00 Ry     beta= 0.70
     Davidson diagonalization with overlap
     ethr =  1.91E-04,  avg # of iterations =  1.0

     total cpu time spent up to now is        1.2 secs

     total energy              =      -4.18936033 Ry
     Harris-Foulkes estimate   =      -4.18924392 Ry
     estimated scf accuracy    <       0.00043582 Ry

     iteration #  3     ecut=    60.00 Ry     beta= 0.70
     Davidson diagonalization with overlap
     ethr =  1.45E-05,  avg # of iterations =  1.5

     total cpu time spent up to now is        1.4 secs

     total energy              =      -4.18936394 Ry
     Harris-Foulkes estimate   =      -4.18936365 Ry
     estimated scf accuracy    <       0.00000032 Ry

     iteration #  4     ecut=    60.00 Ry     beta= 0.70
     Davidson diagonalization with overlap
     ethr =  1.08E-08,  avg # of iterations =  1.9

     total cpu time spent up to now is        1.7 secs

     End of self-consistent calculation

          k =-0.0833 0.0833 0.0833 (   881 PWs)   bands (ev):

    -3.1409  17.8081  19.8567  19.8567  22.4469  22.5721

          k =-0.2500 0.2500-0.0833 (   869 PWs)   bands (ev):

    -2.1194  13.4687  16.3659  20.7122  22.0161  23.2025

          k =-0.4167 0.4167-0.2500 (   863 PWs)   bands (ev):

     0.3903   7.5972  15.9141  19.1017  20.4904  20.8886

          k = 0.4167-0.4167 0.5833 (   859 PWs)   bands (ev):

     2.8400   4.2935  16.8007  17.4179  19.0915  21.3264

          k = 0.2500-0.2500 0.4167 (   860 PWs)   bands (ev):

    -0.6063   9.4496  16.9779  18.5783  18.9911  23.4296

          k = 0.0833-0.0833 0.2500 (   881 PWs)   bands (ev):

    -2.6288  15.6584  17.8007  19.1266  21.4536  22.7409

          k =-0.0833 0.4167 0.0833 (   865 PWs)   bands (ev):

    -1.6122  13.8614  16.1156  17.4576  18.2365  20.4221

          k =-0.2500 0.5833-0.0833 (   859 PWs)   bands (ev):

     0.3904  10.2697  13.3337  14.7214  18.7557  21.8461

          k = 0.5833-0.2500 0.7500 (   857 PWs)   bands (ev):

     3.7955   5.2434  12.3916  13.7954  19.4194  23.2353

          k = 0.4167-0.0833 0.5833 (   861 PWs)   bands (ev):

     1.3772   8.4308  11.6033  15.5510  21.1645  22.3071

          k = 0.2500 0.0833 0.4167 (   865 PWs)   bands (ev):

    -1.1080  11.6503  14.6782  18.6066  19.9946  22.8234

          k =-0.0833 0.7500 0.0833 (   857 PWs)   bands (ev):

     1.8638  10.5371  11.6015  14.0141  15.1690  18.4651

          k = 0.7500-0.0833 0.9167 (   859 PWs)   bands (ev):

     4.6903   7.8023   8.9280  12.0590  17.4244  20.7071

          k = 0.5833 0.0833 0.7500 (   858 PWs)   bands (ev):

     4.7464   6.1111   9.2870  13.3319  19.0078  25.2640

          k = 0.4167 0.2500 0.5833 (   860 PWs)   bands (ev):

     1.8672   6.1869  14.6167  15.9866  20.1439  21.5881

          k =-0.0833-0.9167 0.0833 (   856 PWs)   bands (ev):

     4.2201   7.3513  11.1279  13.5962  14.6948  18.0413

          k =-0.2500-0.7500-0.0833 (   862 PWs)   bands (ev):

     2.3506   9.3344  11.0131  12.5336  17.8740  21.0996

          k =-0.0833-0.5833 0.0833 (   856 PWs)   bands (ev):

    -0.1063  12.4881  14.2210  14.8527  16.1087  19.2794

          k =-0.2500 0.2500 0.2500 (   878 PWs)   bands (ev):

    -1.6126  11.2831  18.6731  18.6731  22.1594  22.5312

          k =-0.4167 0.4167 0.0833 (   864 PWs)   bands (ev):

    -0.1067   9.8182  12.9617  18.6838  20.7305  22.6455

          k = 0.4167-0.4167 0.9167 (   858 PWs)   bands (ev):

     2.8395   7.0387  10.2290  16.1373  18.0449  25.2982

          k = 0.2500-0.2500 0.7500 (   863 PWs)   bands (ev):

     2.8353   7.1152  11.5049  14.8608  16.5610  23.8203

          k =-0.2500 0.5833 0.2500 (   864 PWs)   bands (ev):

     0.8849   8.0540  15.1109  15.7056  17.4491  24.4407

          k = 0.5833-0.2500 1.0833 (   860 PWs)   bands (ev):

     3.3176   7.5006  10.6343  12.0528  21.4001  22.8321

          k = 0.4167-0.0833 0.9167 (   868 PWs)   bands (ev):

     5.6223   7.0262   8.7646  10.3325  21.0057  23.7505

          k =-0.2500-1.0833 0.2500 (   861 PWs)   bands (ev):

     5.1553   6.6323   8.3605  14.4400  16.0957  23.4648

          k =-0.4167 0.4167 0.4167 (   865 PWs)   bands (ev):

     1.3775   5.7217  18.6949  18.6949  20.0300  20.0301

          k = 0.4167-0.4167 1.2500 (   855 PWs)   bands (ev):

     3.3213   4.7671  13.3218  16.5633  18.4479  23.0864

     the Fermi energy is     7.8139 ev

!    total energy              =      -4.18936397 Ry
     Harris-Foulkes estimate   =      -4.18936397 Ry
     estimated scf accuracy    <          4.4E-09 Ry

     The total energy is the sum of the following terms:

     one-electron contribution =       2.84588545 Ry
     hartree contribution      =       0.00920734 Ry
     xc contribution           =      -1.61507536 Ry
     ewald contribution        =      -5.42944193 Ry
     smearing contrib. (-TS)   =       0.00006052 Ry

     convergence has been achieved in   4 iterations

     Forces acting on atoms (cartesian axes, Ry/au):

     atom    1 type  1   force =     0.00000000    0.00000000    0.00000000

     Total force =     0.000000     Total SCF correction =     0.000000


     Computing stress (Cartesian axis) and pressure

          total   stress  (Ry/bohr**3)                   (kbar)     P=      -37.02
  -0.00025164   0.00000000   0.00000000          -37.02        0.00        0.00
  -0.00000000  -0.00025164   0.00000000           -0.00      -37.02        0.00
  -0.00000000   0.00000000  -0.00025164           -0.00        0.00      -37.02


     Writing output data file /home/alessandro/scratch/Al_bulk.save/

     init_run     :      0.12s CPU      0.12s WALL (       1 calls)
     electrons    :      1.51s CPU      1.53s WALL (       1 calls)
     forces       :      0.01s CPU      0.01s WALL (       1 calls)
     stress       :      0.07s CPU      0.07s WALL (       1 calls)

     Called by init_run:
     wfcinit      :      0.10s CPU      0.10s WALL (       1 calls)
     potinit      :      0.00s CPU      0.00s WALL (       1 calls)
     hinit0       :      0.01s CPU      0.01s WALL (       1 calls)

     Called by electrons:
     c_bands      :      1.26s CPU      1.28s WALL (       5 calls)
     sum_band     :      0.24s CPU      0.24s WALL (       5 calls)
     v_of_rho     :      0.00s CPU      0.01s WALL (       5 calls)
     mix_rho      :      0.00s CPU      0.00s WALL (       5 calls)

     Called by c_bands:
     init_us_2    :      0.04s CPU      0.04s WALL (     364 calls)
     cegterg      :      1.23s CPU      1.25s WALL (     140 calls)

     Called by sum_band:

     Called by *egterg:
     h_psi        :      1.20s CPU      1.21s WALL (     489 calls)
     g_psi        :      0.00s CPU      0.00s WALL (     321 calls)
     cdiaghg      :      0.02s CPU      0.02s WALL (     433 calls)

     Called by h_psi:
     h_psi:calbec :      0.01s CPU      0.01s WALL (     489 calls)
     vloc_psi     :      1.17s CPU      1.19s WALL (     489 calls)
     add_vuspsi   :      0.01s CPU      0.01s WALL (     489 calls)

     General routines
     calbec       :      0.01s CPU      0.01s WALL (     629 calls)
     fft          :      0.01s CPU      0.01s WALL (      20 calls)
     ffts         :      0.00s CPU      0.00s WALL (       5 calls)
     fftw         :      1.29s CPU      1.31s WALL (    5540 calls)

     Parallel routines

     PWSCF        :      1.75s CPU      1.78s WALL


   This run was terminated on:  11:22:33   8Jun2020            

=------------------------------------------------------------------------------=
   JOB DONE.
=------------------------------------------------------------------------------=
