
     Program PWSCF v.6.5 starts on  5Jun2020 at 18:14:25 

     This program is part of the open-source Quantum ESPRESSO suite
     for quantum simulation of materials; please cite
         "P. Giannozzi et al., J. Phys.:Condens. Matter 21 395502 (2009);
         "P. Giannozzi et al., J. Phys.:Condens. Matter 29 465901 (2017);
          URL http://www.quantum-espresso.org", 
     in publications or presentations arising from this work. More details at
     http://www.quantum-espresso.org/quote

     Parallel version (MPI), running on     1 processors

     MPI processes distributed on     1 nodes
     Waiting for input...
     Reading input from standard input

     Current dimensions of program PWSCF are:
     Max number of different atomic species (ntypx) = 10
     Max number of k-points (npk) =  40000
     Max angular momentum in pseudopotentials (lmaxx) =  3

     Subspace diagonalization in iterative solution of the eigenvalue problem:
     a serial algorithm will be used


     G-vector sticks info
     --------------------
     sticks:   dense  smooth     PW     G-vecs:    dense   smooth      PW
     Sum         177     177     61                12617    12617    2361



     bravais-lattice index     =            6
     lattice parameter (alat)  =       5.3033  a.u.
     unit-cell volume          =    1044.0868 (a.u.)^3
     number of atoms/cell      =            5
     number of atomic types    =            1
     number of electrons       =        15.00
     number of Kohn-Sham states=           12
     kinetic-energy cutoff     =      20.0000  Ry
     charge density cutoff     =      80.0000  Ry
     convergence threshold     =      1.0E-08
     mixing beta               =       0.5000
     number of iterations used =            8  local-TF  mixing
     Exchange-correlation= SLA PZ NOGX NOGC
                           (   1   1   0   0   0   0   0)

     celldm(1)=   5.303300  celldm(2)=   0.000000  celldm(3)=   7.000000
     celldm(4)=   0.000000  celldm(5)=   0.000000  celldm(6)=   0.000000

     crystal axes: (cart. coord. in units of alat)
               a(1) = (   1.000000   0.000000   0.000000 )  
               a(2) = (   0.000000   1.000000   0.000000 )  
               a(3) = (   0.000000   0.000000   7.000000 )  

     reciprocal axes: (cart. coord. in units 2 pi/alat)
               b(1) = (  1.000000  0.000000  0.000000 )  
               b(2) = (  0.000000  1.000000  0.000000 )  
               b(3) = (  0.000000  0.000000  0.142857 )  


     PseudoPot. # 1 for Al read from file:
     /home/alessandro/Quantum-Espresso/qe-6.5/pseudo/Al.pz-vbc.UPF
     MD5 check sum: f06ceae8da0fe5c02c98e3688433298c
     Pseudo is Norm-conserving, Zval =  3.0
     Generated by new atomic code, or converted to UPF format
     Using radial grid of  171 points,  2 beta functions with: 
                l(1) =   0
                l(2) =   1

     atomic species   valence    mass     pseudopotential
        Al             3.00     1.00000     Al( 1.00)

     No symmetry found



   Cartesian axes

     site n.     atom                  positions (alat units)
         1           Al  tau(   1) = (   0.0000000   0.0000000   2.8284260  )
         2           Al  tau(   2) = (   0.5000000   0.5000000   2.1213200  )
         3           Al  tau(   3) = (   0.0000000   0.0000000   1.4142130  )
         4           Al  tau(   4) = (   0.5000000   0.5000000   0.7071070  )
         5           Al  tau(   5) = (   0.0000000   0.0000000   0.0000000  )

     number of k points=     3  Methfessel-Paxton smearing, width (Ry)=  0.0500
                       cart. coord. in units 2pi/alat
        k(    1) = (   0.1250000   0.1250000   0.0000000), wk =   0.5000000
        k(    2) = (   0.1250000   0.3750000   0.0000000), wk =   1.0000000
        k(    3) = (   0.3750000   0.3750000   0.0000000), wk =   0.5000000

     Dense  grid:    12617 G-vectors     FFT dimensions: (  15,  15, 108)

     Estimated max dynamical RAM per process >      13.99 MB

     Initial potential from superposition of free atoms

     starting charge   14.98972, renormalised to   15.00000

     negative rho (up, down):  1.665E-03 0.000E+00
     Starting wfcs are   20 randomized atomic wfcs

     total cpu time spent up to now is        0.1 secs

     Self-consistent Calculation

     iteration #  1     ecut=    20.00 Ry     beta= 0.50
     Davidson diagonalization with overlap
     ethr =  1.00E-02,  avg # of iterations =  3.0

     negative rho (up, down):  1.162E-05 0.000E+00

     total cpu time spent up to now is        0.2 secs

     total energy              =     -20.90870849 Ry
     Harris-Foulkes estimate   =     -20.94978626 Ry
     estimated scf accuracy    <       0.56381330 Ry

     iteration #  2     ecut=    20.00 Ry     beta= 0.50
     Davidson diagonalization with overlap
     ethr =  3.76E-03,  avg # of iterations =  1.0

     negative rho (up, down):  2.017E-04 0.000E+00

     total cpu time spent up to now is        0.3 secs

     total energy              =     -20.85372496 Ry
     Harris-Foulkes estimate   =     -20.91419932 Ry
     estimated scf accuracy    <       0.29088183 Ry

     iteration #  3     ecut=    20.00 Ry     beta= 0.50
     Davidson diagonalization with overlap
     ethr =  1.94E-03,  avg # of iterations =  2.3

     total cpu time spent up to now is        0.3 secs

     total energy              =     -20.87878514 Ry
     Harris-Foulkes estimate   =     -20.88722285 Ry
     estimated scf accuracy    <       0.02661388 Ry

     iteration #  4     ecut=    20.00 Ry     beta= 0.50
     Davidson diagonalization with overlap
     ethr =  1.77E-04,  avg # of iterations =  3.7

     negative rho (up, down):  3.833E-05 0.000E+00

     total cpu time spent up to now is        0.4 secs

     total energy              =     -20.88053773 Ry
     Harris-Foulkes estimate   =     -20.88639941 Ry
     estimated scf accuracy    <       0.04136626 Ry

     iteration #  5     ecut=    20.00 Ry     beta= 0.50
     Davidson diagonalization with overlap
     ethr =  1.77E-04,  avg # of iterations =  2.0

     total cpu time spent up to now is        0.5 secs

     total energy              =     -20.88108734 Ry
     Harris-Foulkes estimate   =     -20.88173779 Ry
     estimated scf accuracy    <       0.01124931 Ry

     iteration #  6     ecut=    20.00 Ry     beta= 0.50
     Davidson diagonalization with overlap
     ethr =  7.50E-05,  avg # of iterations =  1.0

     total cpu time spent up to now is        0.5 secs

     total energy              =     -20.87959942 Ry
     Harris-Foulkes estimate   =     -20.88123577 Ry
     estimated scf accuracy    <       0.00566453 Ry

     iteration #  7     ecut=    20.00 Ry     beta= 0.50
     Davidson diagonalization with overlap
     ethr =  3.78E-05,  avg # of iterations =  4.0

     negative rho (up, down):  1.890E-04 0.000E+00

     total cpu time spent up to now is        0.6 secs

     total energy              =     -20.88044687 Ry
     Harris-Foulkes estimate   =     -20.88015881 Ry
     estimated scf accuracy    <       0.00043396 Ry

     iteration #  8     ecut=    20.00 Ry     beta= 0.50
     Davidson diagonalization with overlap
     ethr =  2.89E-06,  avg # of iterations =  3.7

     negative rho (up, down):  2.372E-04 0.000E+00

     total cpu time spent up to now is        0.7 secs

     total energy              =     -20.88051425 Ry
     Harris-Foulkes estimate   =     -20.88050552 Ry
     estimated scf accuracy    <       0.00006418 Ry

     iteration #  9     ecut=    20.00 Ry     beta= 0.50
     Davidson diagonalization with overlap
     ethr =  4.28E-07,  avg # of iterations =  2.3

     negative rho (up, down):  4.531E-05 0.000E+00

     total cpu time spent up to now is        0.8 secs

     total energy              =     -20.88053521 Ry
     Harris-Foulkes estimate   =     -20.88052031 Ry
     estimated scf accuracy    <       0.00000453 Ry

     iteration # 10     ecut=    20.00 Ry     beta= 0.50
     Davidson diagonalization with overlap
     ethr =  3.02E-08,  avg # of iterations =  3.0

     negative rho (up, down):  1.400E-05 0.000E+00

     total cpu time spent up to now is        1.0 secs

     total energy              =     -20.88053591 Ry
     Harris-Foulkes estimate   =     -20.88053623 Ry
     estimated scf accuracy    <       0.00000114 Ry

     iteration # 11     ecut=    20.00 Ry     beta= 0.50
     Davidson diagonalization with overlap
     ethr =  7.57E-09,  avg # of iterations =  1.3

     negative rho (up, down):  7.669E-07 0.000E+00

     total cpu time spent up to now is        1.1 secs

     total energy              =     -20.88053599 Ry
     Harris-Foulkes estimate   =     -20.88053598 Ry
     estimated scf accuracy    <       0.00000006 Ry

     iteration # 12     ecut=    20.00 Ry     beta= 0.50
     Davidson diagonalization with overlap
     ethr =  3.78E-10,  avg # of iterations =  2.7

     total cpu time spent up to now is        1.2 secs

     End of self-consistent calculation

          k = 0.1250 0.1250 0.0000 (  1563 PWs)   bands (ev):

    -8.3126  -7.3673  -5.8317  -3.8367  -1.3391   0.5195   3.5801   4.2872
     5.1342   5.6262   5.9827   6.5885

          k = 0.1250 0.3750 0.0000 (  1570 PWs)   bands (ev):

    -5.9843  -5.0581  -3.5514  -1.5918  -1.4936  -0.5896   0.7462   1.0254
     2.4822   2.9677   5.1749   5.9740

          k = 0.3750 0.3750 0.0000 (  1594 PWs)   bands (ev):

    -3.7150  -2.8079  -1.3301   0.0926   0.5872   0.9348   1.4716   2.3310
     2.4794   3.0756   3.9974   4.1891

     the Fermi energy is     2.2340 ev

!    total energy              =     -20.88053599 Ry
     Harris-Foulkes estimate   =     -20.88053599 Ry
     estimated scf accuracy    <          4.0E-10 Ry

     The total energy is the sum of the following terms:

     one-electron contribution =    -137.79404021 Ry
     hartree contribution      =      72.93515155 Ry
     xc contribution           =      -7.93890367 Ry
     ewald contribution        =      51.91796144 Ry
     smearing contrib. (-TS)   =      -0.00070510 Ry

     convergence has been achieved in  12 iterations

     Forces acting on atoms (cartesian axes, Ry/au):

     atom    1 type  1   force =     0.00000004   -0.00000009   -0.01593487
     atom    2 type  1   force =    -0.00000011    0.00000009    0.00618883
     atom    3 type  1   force =     0.00000004   -0.00000001    0.00000040
     atom    4 type  1   force =    -0.00000001    0.00000008   -0.00618905
     atom    5 type  1   force =     0.00000003   -0.00000007    0.01593468

     Total force =     0.017094     Total SCF correction =     0.000016

     Writing output data file /home/alessandro/scratch/Al-100test.save/

     init_run     :      0.06s CPU      0.06s WALL (       1 calls)
     electrons    :      1.04s CPU      1.06s WALL (       1 calls)
     forces       :      0.01s CPU      0.01s WALL (       1 calls)

     Called by init_run:
     wfcinit      :      0.03s CPU      0.03s WALL (       1 calls)
     potinit      :      0.00s CPU      0.00s WALL (       1 calls)
     hinit0       :      0.01s CPU      0.01s WALL (       1 calls)

     Called by electrons:
     c_bands      :      0.52s CPU      0.53s WALL (      12 calls)
     sum_band     :      0.08s CPU      0.08s WALL (      12 calls)
     v_of_rho     :      0.02s CPU      0.02s WALL (      13 calls)
     mix_rho      :      0.43s CPU      0.43s WALL (      12 calls)

     Called by c_bands:
     init_us_2    :      0.02s CPU      0.02s WALL (      78 calls)
     cegterg      :      0.50s CPU      0.51s WALL (      36 calls)

     Called by sum_band:

     Called by *egterg:
     h_psi        :      0.36s CPU      0.37s WALL (     129 calls)
     g_psi        :      0.00s CPU      0.00s WALL (      90 calls)
     cdiaghg      :      0.02s CPU      0.02s WALL (     126 calls)

     Called by h_psi:
     h_psi:calbec :      0.04s CPU      0.04s WALL (     129 calls)
     vloc_psi     :      0.28s CPU      0.29s WALL (     129 calls)
     add_vuspsi   :      0.03s CPU      0.03s WALL (     129 calls)

     General routines
     calbec       :      0.05s CPU      0.05s WALL (     141 calls)
     fft          :      0.01s CPU      0.01s WALL (      40 calls)
     ffts         :      0.21s CPU      0.21s WALL (     841 calls)
     fftw         :      0.29s CPU      0.29s WALL (    2584 calls)

     Parallel routines

     PWSCF        :      1.15s CPU      1.17s WALL


   This run was terminated on:  18:14:26   5Jun2020            

=------------------------------------------------------------------------------=
   JOB DONE.
=------------------------------------------------------------------------------=
