
     Program PWSCF v.6.5 starts on  8Jun2020 at 21:18:42 

     This program is part of the open-source Quantum ESPRESSO suite
     for quantum simulation of materials; please cite
         "P. Giannozzi et al., J. Phys.:Condens. Matter 21 395502 (2009);
         "P. Giannozzi et al., J. Phys.:Condens. Matter 29 465901 (2017);
          URL http://www.quantum-espresso.org", 
     in publications or presentations arising from this work. More details at
     http://www.quantum-espresso.org/quote

     Parallel version (MPI), running on     1 processors

     MPI processes distributed on     1 nodes
     Waiting for input...
     Reading input from standard input

     Current dimensions of program PWSCF are:
     Max number of different atomic species (ntypx) = 10
     Max number of k-points (npk) =  40000
     Max angular momentum in pseudopotentials (lmaxx) =  3

     Subspace diagonalization in iterative solution of the eigenvalue problem:
     a serial algorithm will be used


     G-vector sticks info
     --------------------
     sticks:   dense  smooth     PW     G-vecs:    dense   smooth      PW
     Sum         463     463    151                 6567     6567    1243



     bravais-lattice index     =            2
     lattice parameter (alat)  =       7.4710  a.u.
     unit-cell volume          =     104.2500 (a.u.)^3
     number of atoms/cell      =            1
     number of atomic types    =            1
     number of electrons       =         3.00
     number of Kohn-Sham states=            6
     kinetic-energy cutoff     =      60.0000  Ry
     charge density cutoff     =     240.0000  Ry
     convergence threshold     =      1.0E-08
     mixing beta               =       0.7000
     number of iterations used =            8  plain     mixing
     Exchange-correlation= SLA PZ NOGX NOGC
                           (   1   1   0   0   0   0   0)

     celldm(1)=   7.471000  celldm(2)=   0.000000  celldm(3)=   0.000000
     celldm(4)=   0.000000  celldm(5)=   0.000000  celldm(6)=   0.000000

     crystal axes: (cart. coord. in units of alat)
               a(1) = (  -0.500000   0.000000   0.500000 )  
               a(2) = (   0.000000   0.500000   0.500000 )  
               a(3) = (  -0.500000   0.500000   0.000000 )  

     reciprocal axes: (cart. coord. in units 2 pi/alat)
               b(1) = ( -1.000000 -1.000000  1.000000 )  
               b(2) = (  1.000000  1.000000  1.000000 )  
               b(3) = ( -1.000000  1.000000 -1.000000 )  


     PseudoPot. # 1 for Al read from file:
     /home/alessandro/Quantum-Espresso/qe-6.5/pseudo/Al.pz-vbc.UPF
     MD5 check sum: f06ceae8da0fe5c02c98e3688433298c
     Pseudo is Norm-conserving, Zval =  3.0
     Generated by new atomic code, or converted to UPF format
     Using radial grid of  171 points,  2 beta functions with: 
                l(1) =   0
                l(2) =   1

     atomic species   valence    mass     pseudopotential
        Al             3.00    26.98100     Al( 1.00)

     48 Sym. Ops., with inversion, found



   Cartesian axes

     site n.     atom                  positions (alat units)
         1           Al  tau(   1) = (   0.0000000   0.0000000   0.0000000  )

     number of k points=    60  Methfessel-Paxton smearing, width (Ry)=  0.0200
                       cart. coord. in units 2pi/alat
        k(    1) = (  -0.0625000   0.0625000   0.0625000), wk =   0.0078125
        k(    2) = (  -0.1875000   0.1875000  -0.0625000), wk =   0.0234375
        k(    3) = (  -0.3125000   0.3125000  -0.1875000), wk =   0.0234375
        k(    4) = (  -0.4375000   0.4375000  -0.3125000), wk =   0.0234375
        k(    5) = (   0.4375000  -0.4375000   0.5625000), wk =   0.0234375
        k(    6) = (   0.3125000  -0.3125000   0.4375000), wk =   0.0234375
        k(    7) = (   0.1875000  -0.1875000   0.3125000), wk =   0.0234375
        k(    8) = (   0.0625000  -0.0625000   0.1875000), wk =   0.0234375
        k(    9) = (  -0.0625000   0.3125000   0.0625000), wk =   0.0234375
        k(   10) = (  -0.1875000   0.4375000  -0.0625000), wk =   0.0468750
        k(   11) = (  -0.3125000   0.5625000  -0.1875000), wk =   0.0468750
        k(   12) = (   0.5625000  -0.3125000   0.6875000), wk =   0.0468750
        k(   13) = (   0.4375000  -0.1875000   0.5625000), wk =   0.0468750
        k(   14) = (   0.3125000  -0.0625000   0.4375000), wk =   0.0468750
        k(   15) = (   0.1875000   0.0625000   0.3125000), wk =   0.0468750
        k(   16) = (  -0.0625000   0.5625000   0.0625000), wk =   0.0234375
        k(   17) = (  -0.1875000   0.6875000  -0.0625000), wk =   0.0468750
        k(   18) = (   0.6875000  -0.1875000   0.8125000), wk =   0.0468750
        k(   19) = (   0.5625000  -0.0625000   0.6875000), wk =   0.0468750
        k(   20) = (   0.4375000   0.0625000   0.5625000), wk =   0.0468750
        k(   21) = (   0.3125000   0.1875000   0.4375000), wk =   0.0468750
        k(   22) = (  -0.0625000   0.8125000   0.0625000), wk =   0.0234375
        k(   23) = (   0.8125000  -0.0625000   0.9375000), wk =   0.0468750
        k(   24) = (   0.6875000   0.0625000   0.8125000), wk =   0.0468750
        k(   25) = (   0.5625000   0.1875000   0.6875000), wk =   0.0468750
        k(   26) = (   0.4375000   0.3125000   0.5625000), wk =   0.0468750
        k(   27) = (  -0.0625000  -0.9375000   0.0625000), wk =   0.0234375
        k(   28) = (  -0.1875000  -0.8125000  -0.0625000), wk =   0.0468750
        k(   29) = (  -0.3125000  -0.6875000  -0.1875000), wk =   0.0468750
        k(   30) = (  -0.0625000  -0.6875000   0.0625000), wk =   0.0234375
        k(   31) = (  -0.1875000  -0.5625000  -0.0625000), wk =   0.0468750
        k(   32) = (  -0.0625000  -0.4375000   0.0625000), wk =   0.0234375
        k(   33) = (  -0.1875000   0.1875000   0.1875000), wk =   0.0078125
        k(   34) = (  -0.3125000   0.3125000   0.0625000), wk =   0.0234375
        k(   35) = (  -0.4375000   0.4375000  -0.0625000), wk =   0.0234375
        k(   36) = (   0.4375000  -0.4375000   0.8125000), wk =   0.0234375
        k(   37) = (   0.3125000  -0.3125000   0.6875000), wk =   0.0234375
        k(   38) = (   0.1875000  -0.1875000   0.5625000), wk =   0.0234375
        k(   39) = (  -0.1875000   0.4375000   0.1875000), wk =   0.0234375
        k(   40) = (  -0.3125000   0.5625000   0.0625000), wk =   0.0468750
        k(   41) = (   0.5625000  -0.3125000   0.9375000), wk =   0.0468750
        k(   42) = (   0.4375000  -0.1875000   0.8125000), wk =   0.0468750
        k(   43) = (   0.3125000  -0.0625000   0.6875000), wk =   0.0468750
        k(   44) = (  -0.1875000   0.6875000   0.1875000), wk =   0.0234375
        k(   45) = (   0.6875000  -0.1875000   1.0625000), wk =   0.0468750
        k(   46) = (   0.5625000  -0.0625000   0.9375000), wk =   0.0468750
        k(   47) = (   0.4375000   0.0625000   0.8125000), wk =   0.0468750
        k(   48) = (  -0.1875000  -1.0625000   0.1875000), wk =   0.0234375
        k(   49) = (  -0.3125000  -0.9375000   0.0625000), wk =   0.0468750
        k(   50) = (  -0.1875000  -0.8125000   0.1875000), wk =   0.0234375
        k(   51) = (  -0.3125000   0.3125000   0.3125000), wk =   0.0078125
        k(   52) = (  -0.4375000   0.4375000   0.1875000), wk =   0.0234375
        k(   53) = (   0.4375000  -0.4375000   1.0625000), wk =   0.0234375
        k(   54) = (   0.3125000  -0.3125000   0.9375000), wk =   0.0234375
        k(   55) = (  -0.3125000   0.5625000   0.3125000), wk =   0.0234375
        k(   56) = (   0.5625000  -0.3125000   1.1875000), wk =   0.0468750
        k(   57) = (   0.4375000  -0.1875000   1.0625000), wk =   0.0468750
        k(   58) = (  -0.3125000  -1.1875000   0.3125000), wk =   0.0234375
        k(   59) = (  -0.4375000   0.4375000   0.4375000), wk =   0.0078125
        k(   60) = (   0.4375000  -0.4375000   1.3125000), wk =   0.0234375

     Dense  grid:     6567 G-vectors     FFT dimensions: (  27,  27,  27)

     Estimated max dynamical RAM per process >       9.45 MB

     Initial potential from superposition of free atoms

     starting charge    2.99794, renormalised to    3.00000
     Starting wfcs are    4 randomized atomic wfcs +    2 random wfcs

     total cpu time spent up to now is        0.3 secs

     Self-consistent Calculation

     iteration #  1     ecut=    60.00 Ry     beta= 0.70
     Davidson diagonalization with overlap
     ethr =  1.00E-02,  avg # of iterations =  5.0

     Threshold (ethr) on eigenvalues was too large:
     Diagonalizing with lowered threshold

     Davidson diagonalization with overlap
     ethr =  1.94E-04,  avg # of iterations =  1.8

     total cpu time spent up to now is        2.2 secs

     total energy              =      -4.19083487 Ry
     Harris-Foulkes estimate   =      -4.18996896 Ry
     estimated scf accuracy    <       0.00580679 Ry

     iteration #  2     ecut=    60.00 Ry     beta= 0.70
     Davidson diagonalization with overlap
     ethr =  1.94E-04,  avg # of iterations =  1.0

     total cpu time spent up to now is        2.8 secs

     total energy              =      -4.19099831 Ry
     Harris-Foulkes estimate   =      -4.19086168 Ry
     estimated scf accuracy    <       0.00044907 Ry

     iteration #  3     ecut=    60.00 Ry     beta= 0.70
     Davidson diagonalization with overlap
     ethr =  1.50E-05,  avg # of iterations =  1.5

     total cpu time spent up to now is        3.4 secs

     total energy              =      -4.19100173 Ry
     Harris-Foulkes estimate   =      -4.19100143 Ry
     estimated scf accuracy    <       0.00000032 Ry

     iteration #  4     ecut=    60.00 Ry     beta= 0.70
     Davidson diagonalization with overlap
     ethr =  1.07E-08,  avg # of iterations =  2.0

     total cpu time spent up to now is        4.0 secs

     End of self-consistent calculation

          k =-0.0625 0.0625 0.0625 (   851 PWs)   bands (ev):

    -3.0481  19.4862  20.9562  20.9562  23.3644  23.3644

          k =-0.1875 0.1875-0.0625 (   828 PWs)   bands (ev):

    -2.4516  16.0564  18.3211  21.4973  23.5878  24.0051

          k =-0.3125 0.3125-0.1875 (   823 PWs)   bands (ev):

    -0.9763  11.2147  17.5695  20.9023  21.9628  23.4884

          k =-0.4375 0.4375-0.3125 (   819 PWs)   bands (ev):

     1.3386   6.9302  17.5806  19.9582  20.9703  21.5547

          k = 0.4375-0.4375 0.5625 (   816 PWs)   bands (ev):

     3.3128   4.4624  18.3417  18.7174  20.2730  21.7230

          k = 0.3125-0.3125 0.4375 (   824 PWs)   bands (ev):

     0.4769   8.2865  18.2110  19.6755  19.9071  23.2073

          k = 0.1875-0.1875 0.3125 (   826 PWs)   bands (ev):

    -1.5637  12.7865  18.4336  19.8848  22.0890  24.3641

          k = 0.0625-0.0625 0.1875 (   839 PWs)   bands (ev):

    -2.7493  17.7927  19.3742  20.4575  22.6998  24.6977

          k =-0.0625 0.3125 0.0625 (   826 PWs)   bands (ev):

    -2.1546  16.2510  17.9284  19.0862  21.6596  21.9923

          k =-0.1875 0.4375-0.0625 (   827 PWs)   bands (ev):

    -0.9761  13.1715  15.6776  18.7798  19.7505  22.5507

          k =-0.3125 0.5625-0.1875 (   818 PWs)   bands (ev):

     1.0521   8.8018  15.3186  16.5088  19.8192  24.6494

          k = 0.5625-0.3125 0.6875 (   819 PWs)   bands (ev):

     3.8647   5.0189  14.8352  15.9488  20.4094  23.2395

          k = 0.4375-0.1875 0.5625 (   818 PWs)   bands (ev):

     1.9085   7.4535  14.1171  17.1862  21.6706  22.4920

          k = 0.3125-0.0625 0.4375 (   827 PWs)   bands (ev):

    -0.3923  11.5896  14.2571  19.2078  22.1903  23.6415

          k = 0.1875 0.0625 0.3125 (   826 PWs)   bands (ev):

    -1.8587  14.4936  16.9181  20.8937  21.8948  23.5202

          k =-0.0625 0.5625 0.0625 (   826 PWs)   bands (ev):

    -0.1014  13.8682  15.3827  15.7457  16.7696  20.0161

          k =-0.1875 0.6875-0.0625 (   819 PWs)   bands (ev):

     1.6226  11.2859  12.7167  14.0303  17.9576  21.0552

          k = 0.6875-0.1875 0.8125 (   817 PWs)   bands (ev):

     4.1391   7.4387  10.9404  14.1443  18.5886  24.7921

          k = 0.5625-0.0625 0.6875 (   816 PWs)   bands (ev):

     4.1502   7.3165  10.0340  15.1525  19.7198  26.4024

          k = 0.4375 0.0625 0.5625 (   819 PWs)   bands (ev):

     1.6238   9.1890  11.9217  16.9366  21.5188  24.0844

          k = 0.3125 0.1875 0.4375 (   819 PWs)   bands (ev):

    -0.1018   9.8801  16.3636  19.4383  20.6476  23.7745

          k =-0.0625 0.8125 0.0625 (   810 PWs)   bands (ev):

     3.0276   9.8093  12.5534  14.5399  15.4105  18.8257

          k = 0.8125-0.0625 0.9375 (   810 PWs)   bands (ev):

     5.1490   7.7437  10.5327  13.2042  17.1664  20.3547

          k = 0.6875 0.0625 0.8125 (   815 PWs)   bands (ev):

     5.9441   7.1318   8.6944  13.8795  18.3303  24.5981

          k = 0.5625 0.1875 0.6875 (   819 PWs)   bands (ev):

     4.4154   5.5586  12.2782  15.4120  19.9590  24.7203

          k = 0.4375 0.3125 0.5625 (   817 PWs)   bands (ev):

     2.4751   5.8345  16.5973  17.6813  20.9505  22.0496

          k =-0.0625-0.9375 0.0625 (   805 PWs)   bands (ev):

     4.8796   7.4755  12.2815  14.2998  15.1392  18.5743

          k =-0.1875-0.8125-0.0625 (   809 PWs)   bands (ev):

     3.3070  10.0224  10.8399  13.4698  17.4310  20.5918

          k =-0.3125-0.6875-0.1875 (   813 PWs)   bands (ev):

     2.4733   7.9872  13.5182  14.7019  19.0952  25.0897

          k =-0.0625-0.6875 0.0625 (   818 PWs)   bands (ev):

     1.3375  12.4435  13.1163  15.0212  15.9528  19.3154

          k =-0.1875-0.5625-0.0625 (   826 PWs)   bands (ev):

     0.1882  12.1039  14.6127  15.7655  18.7386  21.7213

          k =-0.0625-0.4375 0.0625 (   832 PWs)   bands (ev):

    -1.2692  14.9375  16.7151  17.7742  18.5463  20.8829

          k =-0.1875 0.1875 0.1875 (   818 PWs)   bands (ev):

    -2.1547  14.3482  19.8897  19.8898  23.3139  24.6455

          k =-0.3125 0.3125 0.0625 (   828 PWs)   bands (ev):

    -1.2695  12.9177  15.5154  21.6158  22.6519  23.6977

          k =-0.4375 0.4375-0.0625 (   820 PWs)   bands (ev):

     0.4770  10.2585  12.9816  19.2100  21.2990  24.2215

          k = 0.4375-0.4375 0.8125 (   822 PWs)   bands (ev):

     3.0375   6.3655  13.0846  17.4813  19.4487  24.5230

          k = 0.3125-0.3125 0.6875 (   816 PWs)   bands (ev):

     3.0358   6.3790  14.1022  16.4922  18.3302  25.5139

          k = 0.1875-0.1875 0.5625 (   819 PWs)   bands (ev):

     0.4770  10.3889  15.9045  16.2382  17.9546  23.5930

          k =-0.1875 0.4375 0.1875 (   824 PWs)   bands (ev):

    -0.6838  11.4609  17.2129  18.7463  19.1518  24.3879

          k =-0.3125 0.5625 0.0625 (   820 PWs)   bands (ev):

     0.7649  10.5209  13.2045  16.2507  21.3029  23.7298

          k = 0.5625-0.3125 0.9375 (   817 PWs)   bands (ev):

     3.0361   8.3845  11.0927  14.1969  22.6021  23.4918

          k = 0.4375-0.1875 0.8125 (   818 PWs)   bands (ev):

     4.9514   6.1052  11.6545  12.9851  21.3477  24.3763

          k = 0.3125-0.0625 0.6875 (   815 PWs)   bands (ev):

     2.1906   9.7143  12.3010  13.5170  20.5616  23.2632

          k =-0.1875 0.6875 0.1875 (   815 PWs)   bands (ev):

     1.9070   9.5750  13.0480  15.5101  17.1490  22.9446

          k = 0.6875-0.1875 1.0625 (   815 PWs)   bands (ev):

     3.8633   9.1589  10.5724  12.0991  20.0513  22.8641

          k = 0.5625-0.0625 0.9375 (   812 PWs)   bands (ev):

     6.4796   7.5592   9.0503  10.5743  22.6740  24.9203

          k = 0.4375 0.0625 0.8125 (   816 PWs)   bands (ev):

     4.6904   7.8457  10.4174  11.7309  22.8967  24.0541

          k =-0.1875-1.0625 0.1875 (   806 PWs)   bands (ev):

     5.4170   7.9425   8.9139  14.7854  16.3180  22.2638

          k =-0.3125-0.9375 0.0625 (   810 PWs)   bands (ev):

     5.6857   8.2189   9.0099  11.7614  19.7930  22.6517

          k =-0.1875-0.8125 0.1875 (   810 PWs)   bands (ev):

     3.5854   8.9998  10.4414  15.0265  16.5977  22.4941

          k =-0.3125 0.3125 0.3125 (   824 PWs)   bands (ev):

    -0.3925   9.6323  19.4443  19.4443  22.4458  22.4459

          k =-0.4375 0.4375 0.1875 (   818 PWs)   bands (ev):

     0.7650   8.5377  15.1513  19.4592  21.4474  22.4805

          k = 0.4375-0.4375 1.0625 (   813 PWs)   bands (ev):

     2.7567   8.1193  10.8551  17.2355  19.2160  26.3122

          k = 0.3125-0.3125 0.9375 (   812 PWs)   bands (ev):

     5.5068   6.5262   9.2206  15.7614  17.5500  26.8717

          k =-0.3125 0.5625 0.3125 (   817 PWs)   bands (ev):

     1.6239   7.1987  16.9226  17.2269  19.0408  24.2302

          k = 0.5625-0.3125 1.1875 (   819 PWs)   bands (ev):

     3.3157   6.6371  13.2588  14.5041  21.7729  22.9692

          k = 0.4375-0.1875 1.0625 (   816 PWs)   bands (ev):

     5.7679   6.7923   9.4635  12.6545  21.1135  25.9371

          k =-0.3125-1.1875 0.3125 (   819 PWs)   bands (ev):

     4.6779   5.8443  11.4885  16.0045  17.8158  26.9801

          k =-0.4375 0.4375 0.4375 (   814 PWs)   bands (ev):

     2.1926   5.5618  19.7132  19.7132  20.7145  20.7145

          k = 0.4375-0.4375 1.3125 (   817 PWs)   bands (ev):

     3.5900   4.7402  15.6483  17.9744  19.8684  22.9920

     the Fermi energy is     8.3562 ev

!    total energy              =      -4.19100175 Ry
     Harris-Foulkes estimate   =      -4.19100175 Ry
     estimated scf accuracy    <          5.2E-09 Ry

     The total energy is the sum of the following terms:

     one-electron contribution =       2.96284292 Ry
     hartree contribution      =       0.00991687 Ry
     xc contribution           =      -1.64057742 Ry
     ewald contribution        =      -5.52319083 Ry
     smearing contrib. (-TS)   =       0.00000671 Ry

     convergence has been achieved in   4 iterations

     Forces acting on atoms (cartesian axes, Ry/au):

     atom    1 type  1   force =     0.00000000    0.00000000    0.00000000

     Total force =     0.000000     Total SCF correction =     0.000000


     Computing stress (Cartesian axis) and pressure

          total   stress  (Ry/bohr**3)                   (kbar)     P=       -0.76
  -0.00000517   0.00000000   0.00000000           -0.76        0.00        0.00
   0.00000000  -0.00000517   0.00000000            0.00       -0.76        0.00
   0.00000000   0.00000000  -0.00000517            0.00        0.00       -0.76


     Writing output data file /home/alessandro/scratch/Al_bulk.save/

     init_run     :      0.27s CPU      0.28s WALL (       1 calls)
     electrons    :      3.60s CPU      3.70s WALL (       1 calls)
     forces       :      0.01s CPU      0.02s WALL (       1 calls)
     stress       :      0.14s CPU      0.14s WALL (       1 calls)

     Called by init_run:
     wfcinit      :      0.25s CPU      0.25s WALL (       1 calls)
     potinit      :      0.00s CPU      0.00s WALL (       1 calls)
     hinit0       :      0.01s CPU      0.01s WALL (       1 calls)

     Called by electrons:
     c_bands      :      3.04s CPU      3.13s WALL (       5 calls)
     sum_band     :      0.55s CPU      0.56s WALL (       5 calls)
     v_of_rho     :      0.01s CPU      0.01s WALL (       5 calls)
     mix_rho      :      0.00s CPU      0.00s WALL (       5 calls)

     Called by c_bands:
     init_us_2    :      0.09s CPU      0.09s WALL (     780 calls)
     cegterg      :      2.98s CPU      3.03s WALL (     300 calls)

     Called by sum_band:

     Called by *egterg:
     h_psi        :      2.89s CPU      2.94s WALL (    1038 calls)
     g_psi        :      0.01s CPU      0.01s WALL (     678 calls)
     cdiaghg      :      0.05s CPU      0.05s WALL (     918 calls)

     Called by h_psi:
     h_psi:calbec :      0.03s CPU      0.03s WALL (    1038 calls)
     vloc_psi     :      2.82s CPU      2.87s WALL (    1038 calls)
     add_vuspsi   :      0.02s CPU      0.02s WALL (    1038 calls)

     General routines
     calbec       :      0.03s CPU      0.04s WALL (    1338 calls)
     fft          :      0.01s CPU      0.01s WALL (      20 calls)
     ffts         :      0.00s CPU      0.00s WALL (       5 calls)
     fftw         :      3.09s CPU      3.14s WALL (   11876 calls)

     Parallel routines

     PWSCF        :      4.06s CPU      4.17s WALL


   This run was terminated on:  21:18:47   8Jun2020            

=------------------------------------------------------------------------------=
   JOB DONE.
=------------------------------------------------------------------------------=
