
     Program PWSCF v.6.5 starts on  9Jun2020 at 21:36:36 

     This program is part of the open-source Quantum ESPRESSO suite
     for quantum simulation of materials; please cite
         "P. Giannozzi et al., J. Phys.:Condens. Matter 21 395502 (2009);
         "P. Giannozzi et al., J. Phys.:Condens. Matter 29 465901 (2017);
          URL http://www.quantum-espresso.org", 
     in publications or presentations arising from this work. More details at
     http://www.quantum-espresso.org/quote

     Parallel version (MPI), running on     1 processors

     MPI processes distributed on     1 nodes
     Waiting for input...
     Reading input from standard input

     Current dimensions of program PWSCF are:
     Max number of different atomic species (ntypx) = 10
     Max number of k-points (npk) =  40000
     Max angular momentum in pseudopotentials (lmaxx) =  3

     Subspace diagonalization in iterative solution of the eigenvalue problem:
     a serial algorithm will be used


     G-vector sticks info
     --------------------
     sticks:   dense  smooth     PW     G-vecs:    dense   smooth      PW
     Sum         649     649    199                10849    10849    1917



     bravais-lattice index     =            2
     lattice parameter (alat)  =       7.6400  a.u.
     unit-cell volume          =     111.4859 (a.u.)^3
     number of atoms/cell      =            1
     number of atomic types    =            1
     number of electrons       =         3.00
     number of Kohn-Sham states=            6
     kinetic-energy cutoff     =      80.0000  Ry
     charge density cutoff     =     320.0000  Ry
     convergence threshold     =      1.0E-07
     mixing beta               =       0.7000
     number of iterations used =            8  plain     mixing
     Exchange-correlation= PBE
                           (   1   4   3   4   0   0   0)

     celldm(1)=   7.640000  celldm(2)=   0.000000  celldm(3)=   0.000000
     celldm(4)=   0.000000  celldm(5)=   0.000000  celldm(6)=   0.000000

     crystal axes: (cart. coord. in units of alat)
               a(1) = (  -0.500000   0.000000   0.500000 )  
               a(2) = (   0.000000   0.500000   0.500000 )  
               a(3) = (  -0.500000   0.500000   0.000000 )  

     reciprocal axes: (cart. coord. in units 2 pi/alat)
               b(1) = ( -1.000000 -1.000000  1.000000 )  
               b(2) = (  1.000000  1.000000  1.000000 )  
               b(3) = ( -1.000000  1.000000 -1.000000 )  


     PseudoPot. # 1 for Al read from file:
     /home/alessandro/Quantum-Espresso/qe-6.5/pseudo/Al.pbe-uspp.UPF
     MD5 check sum: 6db8691240a1c860ce6448702d298c4b
     Pseudo is Ultrasoft + core correction, Zval =  3.0
     Generated using "atomic" code by A. Dal Corso v.6.3
     Using radial grid of 1135 points,  4 beta functions with: 
                l(1) =   0
                l(2) =   0
                l(3) =   1
                l(4) =   1
     Q(r) pseudized with 0 coefficients 


     atomic species   valence    mass     pseudopotential
        Al             3.00    26.98100     Al( 1.00)

     48 Sym. Ops., with inversion, found



   Cartesian axes

     site n.     atom                  positions (alat units)
         1           Al  tau(   1) = (   0.0000000   0.0000000   0.0000000  )

     number of k points=    60  Methfessel-Paxton smearing, width (Ry)=  0.0200
                       cart. coord. in units 2pi/alat
        k(    1) = (  -0.0625000   0.0625000   0.0625000), wk =   0.0078125
        k(    2) = (  -0.1875000   0.1875000  -0.0625000), wk =   0.0234375
        k(    3) = (  -0.3125000   0.3125000  -0.1875000), wk =   0.0234375
        k(    4) = (  -0.4375000   0.4375000  -0.3125000), wk =   0.0234375
        k(    5) = (   0.4375000  -0.4375000   0.5625000), wk =   0.0234375
        k(    6) = (   0.3125000  -0.3125000   0.4375000), wk =   0.0234375
        k(    7) = (   0.1875000  -0.1875000   0.3125000), wk =   0.0234375
        k(    8) = (   0.0625000  -0.0625000   0.1875000), wk =   0.0234375
        k(    9) = (  -0.0625000   0.3125000   0.0625000), wk =   0.0234375
        k(   10) = (  -0.1875000   0.4375000  -0.0625000), wk =   0.0468750
        k(   11) = (  -0.3125000   0.5625000  -0.1875000), wk =   0.0468750
        k(   12) = (   0.5625000  -0.3125000   0.6875000), wk =   0.0468750
        k(   13) = (   0.4375000  -0.1875000   0.5625000), wk =   0.0468750
        k(   14) = (   0.3125000  -0.0625000   0.4375000), wk =   0.0468750
        k(   15) = (   0.1875000   0.0625000   0.3125000), wk =   0.0468750
        k(   16) = (  -0.0625000   0.5625000   0.0625000), wk =   0.0234375
        k(   17) = (  -0.1875000   0.6875000  -0.0625000), wk =   0.0468750
        k(   18) = (   0.6875000  -0.1875000   0.8125000), wk =   0.0468750
        k(   19) = (   0.5625000  -0.0625000   0.6875000), wk =   0.0468750
        k(   20) = (   0.4375000   0.0625000   0.5625000), wk =   0.0468750
        k(   21) = (   0.3125000   0.1875000   0.4375000), wk =   0.0468750
        k(   22) = (  -0.0625000   0.8125000   0.0625000), wk =   0.0234375
        k(   23) = (   0.8125000  -0.0625000   0.9375000), wk =   0.0468750
        k(   24) = (   0.6875000   0.0625000   0.8125000), wk =   0.0468750
        k(   25) = (   0.5625000   0.1875000   0.6875000), wk =   0.0468750
        k(   26) = (   0.4375000   0.3125000   0.5625000), wk =   0.0468750
        k(   27) = (  -0.0625000  -0.9375000   0.0625000), wk =   0.0234375
        k(   28) = (  -0.1875000  -0.8125000  -0.0625000), wk =   0.0468750
        k(   29) = (  -0.3125000  -0.6875000  -0.1875000), wk =   0.0468750
        k(   30) = (  -0.0625000  -0.6875000   0.0625000), wk =   0.0234375
        k(   31) = (  -0.1875000  -0.5625000  -0.0625000), wk =   0.0468750
        k(   32) = (  -0.0625000  -0.4375000   0.0625000), wk =   0.0234375
        k(   33) = (  -0.1875000   0.1875000   0.1875000), wk =   0.0078125
        k(   34) = (  -0.3125000   0.3125000   0.0625000), wk =   0.0234375
        k(   35) = (  -0.4375000   0.4375000  -0.0625000), wk =   0.0234375
        k(   36) = (   0.4375000  -0.4375000   0.8125000), wk =   0.0234375
        k(   37) = (   0.3125000  -0.3125000   0.6875000), wk =   0.0234375
        k(   38) = (   0.1875000  -0.1875000   0.5625000), wk =   0.0234375
        k(   39) = (  -0.1875000   0.4375000   0.1875000), wk =   0.0234375
        k(   40) = (  -0.3125000   0.5625000   0.0625000), wk =   0.0468750
        k(   41) = (   0.5625000  -0.3125000   0.9375000), wk =   0.0468750
        k(   42) = (   0.4375000  -0.1875000   0.8125000), wk =   0.0468750
        k(   43) = (   0.3125000  -0.0625000   0.6875000), wk =   0.0468750
        k(   44) = (  -0.1875000   0.6875000   0.1875000), wk =   0.0234375
        k(   45) = (   0.6875000  -0.1875000   1.0625000), wk =   0.0468750
        k(   46) = (   0.5625000  -0.0625000   0.9375000), wk =   0.0468750
        k(   47) = (   0.4375000   0.0625000   0.8125000), wk =   0.0468750
        k(   48) = (  -0.1875000  -1.0625000   0.1875000), wk =   0.0234375
        k(   49) = (  -0.3125000  -0.9375000   0.0625000), wk =   0.0468750
        k(   50) = (  -0.1875000  -0.8125000   0.1875000), wk =   0.0234375
        k(   51) = (  -0.3125000   0.3125000   0.3125000), wk =   0.0078125
        k(   52) = (  -0.4375000   0.4375000   0.1875000), wk =   0.0234375
        k(   53) = (   0.4375000  -0.4375000   1.0625000), wk =   0.0234375
        k(   54) = (   0.3125000  -0.3125000   0.9375000), wk =   0.0234375
        k(   55) = (  -0.3125000   0.5625000   0.3125000), wk =   0.0234375
        k(   56) = (   0.5625000  -0.3125000   1.1875000), wk =   0.0468750
        k(   57) = (   0.4375000  -0.1875000   1.0625000), wk =   0.0468750
        k(   58) = (  -0.3125000  -1.1875000   0.3125000), wk =   0.0234375
        k(   59) = (  -0.4375000   0.4375000   0.4375000), wk =   0.0078125
        k(   60) = (   0.4375000  -0.4375000   1.3125000), wk =   0.0234375

     Dense  grid:    10849 G-vectors     FFT dimensions: (  32,  32,  32)

     Estimated max dynamical RAM per process >      23.22 MB

     Initial potential from superposition of free atoms

     starting charge    2.99771, renormalised to    3.00000
     Starting wfcs are    4 randomized atomic wfcs +    2 random wfcs

     total cpu time spent up to now is        0.7 secs

     Self-consistent Calculation

     iteration #  1     ecut=    80.00 Ry     beta= 0.70
     Davidson diagonalization with overlap
     ethr =  1.00E-02,  avg # of iterations =  4.9

     Threshold (ethr) on eigenvalues was too large:
     Diagonalizing with lowered threshold

     Davidson diagonalization with overlap
     ethr =  1.94E-04,  avg # of iterations =  2.0

     total cpu time spent up to now is        2.0 secs

     total energy              =      -5.03908745 Ry
     Harris-Foulkes estimate   =      -5.04050570 Ry
     estimated scf accuracy    <       0.00572885 Ry

     iteration #  2     ecut=    80.00 Ry     beta= 0.70
     Davidson diagonalization with overlap
     ethr =  1.91E-04,  avg # of iterations =  1.0

     total cpu time spent up to now is        2.4 secs

     total energy              =      -5.03907601 Ry
     Harris-Foulkes estimate   =      -5.03916861 Ry
     estimated scf accuracy    <       0.00040104 Ry

     iteration #  3     ecut=    80.00 Ry     beta= 0.70
     Davidson diagonalization with overlap
     ethr =  1.34E-05,  avg # of iterations =  1.8

     total cpu time spent up to now is        2.9 secs

     total energy              =      -5.03909628 Ry
     Harris-Foulkes estimate   =      -5.03909637 Ry
     estimated scf accuracy    <       0.00000145 Ry

     iteration #  4     ecut=    80.00 Ry     beta= 0.70
     Davidson diagonalization with overlap
     ethr =  4.82E-08,  avg # of iterations =  3.0

     total cpu time spent up to now is        3.4 secs

     End of self-consistent calculation

          k =-0.0625 0.0625 0.0625 (  1369 PWs)   bands (ev):

    -3.1314  18.7128  20.1218  20.1218  22.5061  22.5061

          k =-0.1875 0.1875-0.0625 (  1352 PWs)   bands (ev):

    -2.5668  15.3859  17.5489  20.6402  22.7296  23.1216

          k =-0.3125 0.3125-0.1875 (  1355 PWs)   bands (ev):

    -1.1649  10.6450  16.8138  20.0691  21.0865  22.5847

          k =-0.4375 0.4375-0.3125 (  1353 PWs)   bands (ev):

     1.0503   6.4604  16.8263  19.1465  20.1358  20.6897

          k = 0.4375-0.4375 0.5625 (  1357 PWs)   bands (ev):

     2.9548   4.0601  17.5756  17.9385  19.4370  20.8630

          k = 0.3125-0.3125 0.4375 (  1346 PWs)   bands (ev):

     0.2235   7.7827  17.4436  18.8930  19.0655  22.2901

          k = 0.1875-0.1875 0.3125 (  1350 PWs)   bands (ev):

    -1.7240  12.1827  17.6644  19.0703  21.2150  23.4227

          k = 0.0625-0.0625 0.1875 (  1353 PWs)   bands (ev):

    -2.8488  17.0740  18.5883  19.6479  21.8389  23.7622

          k =-0.0625 0.3125 0.0625 (  1344 PWs)   bands (ev):

    -2.2853  15.5797  17.1702  18.3337  20.7646  21.1064

          k =-0.1875 0.4375-0.0625 (  1347 PWs)   bands (ev):

    -1.1650  12.5790  14.9513  17.9936  18.9562  21.6441

          k =-0.3125 0.5625-0.1875 (  1349 PWs)   bands (ev):

     0.7746   8.2891  14.6291  15.7531  18.9936  23.6848

          k = 0.5625-0.3125 0.6875 (  1351 PWs)   bands (ev):

     3.4906   4.5970  14.1726  15.1874  19.5635  22.3054

          k = 0.4375-0.1875 0.5625 (  1348 PWs)   bands (ev):

     1.5980   6.9720  13.4410  16.4233  20.8069  21.5678

          k = 0.3125-0.0625 0.4375 (  1350 PWs)   bands (ev):

    -0.6080  11.0334  13.5518  18.4043  21.3119  22.7219

          k = 0.1875 0.0625 0.3125 (  1352 PWs)   bands (ev):

    -2.0044  13.8660  16.1682  20.0612  21.0235  22.6116

          k =-0.0625 0.5625 0.0625 (  1342 PWs)   bands (ev):

    -0.3309  13.2724  14.7141  15.0105  16.0759  19.0708

          k =-0.1875 0.6875-0.0625 (  1346 PWs)   bands (ev):

     1.3212  10.7489  12.1222  13.2689  17.2206  20.1308

          k = 0.6875-0.1875 0.8125 (  1342 PWs)   bands (ev):

     3.7519   6.9621  10.3499  13.4223  17.7919  23.8289

          k = 0.5625-0.0625 0.6875 (  1339 PWs)   bands (ev):

     3.7657   6.8462   9.4402  14.4224  18.8844  25.3294

          k = 0.4375 0.0625 0.5625 (  1347 PWs)   bands (ev):

     1.3240   8.6840  11.2722  16.1782  20.6419  23.1132

          k = 0.3125 0.1875 0.4375 (  1350 PWs)   bands (ev):

    -0.3303   9.3415  15.6333  18.6341  19.8108  22.8264

          k =-0.0625 0.8125 0.0625 (  1343 PWs)   bands (ev):

     2.6726   9.2707  11.9881  13.8075  14.7602  17.8754

          k = 0.8125-0.0625 0.9375 (  1345 PWs)   bands (ev):

     4.7249   7.2596   9.9923  12.4815  16.4521  19.4281

          k = 0.6875 0.0625 0.8125 (  1345 PWs)   bands (ev):

     5.5109   6.6771   8.1283  13.1659  17.5406  23.6312

          k = 0.5625 0.1875 0.6875 (  1351 PWs)   bands (ev):

     4.0272   5.1184  11.6519  14.6750  19.1192  23.7300

          k = 0.4375 0.3125 0.5625 (  1351 PWs)   bands (ev):

     2.1442   5.3937  15.8764  16.9075  20.1062  21.1525

          k =-0.0625-0.9375 0.0625 (  1342 PWs)   bands (ev):

     4.4603   6.9953  11.7259  13.5670  14.4958  17.6257

          k =-0.1875-0.8125-0.0625 (  1344 PWs)   bands (ev):

     2.9434   9.5038  10.2754  12.7388  16.7093  19.6654

          k =-0.3125-0.6875-0.1875 (  1346 PWs)   bands (ev):

     2.1413   7.4951  12.8985  13.9489  18.2857  24.1451

          k =-0.0625-0.6875 0.0625 (  1342 PWs)   bands (ev):

     1.0468  11.8580  12.5222  14.2886  15.2874  18.3647

          k =-0.1875-0.5625-0.0625 (  1343 PWs)   bands (ev):

    -0.0537  11.5398  13.9332  15.0219  17.9777  20.8031

          k =-0.0625-0.4375 0.0625 (  1346 PWs)   bands (ev):

    -1.4443  14.3064  15.9724  17.0793  17.7661  19.9549

          k =-0.1875 0.1875 0.1875 (  1345 PWs)   bands (ev):

    -2.2853  13.7083  19.0881  19.0881  22.3906  23.6919

          k =-0.3125 0.3125 0.0625 (  1358 PWs)   bands (ev):

    -1.4442  12.3298  14.7852  20.7634  21.7308  22.7559

          k =-0.4375 0.4375-0.0625 (  1342 PWs)   bands (ev):

     0.2234   9.7312  12.3028  18.4157  20.4155  23.2370

          k = 0.4375-0.4375 0.8125 (  1348 PWs)   bands (ev):

     2.6875   5.9102  12.4312  16.7222  18.6074  23.5460

          k = 0.3125-0.3125 0.6875 (  1347 PWs)   bands (ev):

     2.6850   5.9235  13.4391  15.7482  17.5182  24.4905

          k = 0.1875-0.1875 0.5625 (  1346 PWs)   bands (ev):

     0.2229   9.8435  15.2177  15.4985  17.1588  22.6657

          k =-0.1875 0.4375 0.1875 (  1349 PWs)   bands (ev):

    -0.8862  10.8888  16.4629  18.0279  18.2873  23.4651

          k =-0.3125 0.5625 0.0625 (  1350 PWs)   bands (ev):

     0.4989   9.9894  12.5310  15.5033  20.4560  22.8408

          k = 0.5625-0.3125 0.9375 (  1346 PWs)   bands (ev):

     2.6853   7.8959  10.4783  13.4777  21.7177  22.5377

          k = 0.4375-0.1875 0.8125 (  1346 PWs)   bands (ev):

     4.5481   5.6508  11.0863  12.2482  20.4824  23.4018

          k = 0.3125-0.0625 0.6875 (  1350 PWs)   bands (ev):

     1.8685   9.2021  11.7040  12.7685  19.7397  22.3424

          k =-0.1875 0.6875 0.1875 (  1347 PWs)   bands (ev):

     1.5951   9.0523  12.4140  14.7749  16.3854  22.0174

          k = 0.6875-0.1875 1.0625 (  1343 PWs)   bands (ev):

     3.4834   8.6667  10.0366  11.3484  19.2461  21.9326

          k = 0.5625-0.0625 0.9375 (  1348 PWs)   bands (ev):

     6.0378   7.0953   8.5581   9.8365  21.7773  23.9897

          k = 0.4375 0.0625 0.8125 (  1350 PWs)   bands (ev):

     4.2888   7.3686   9.8830  10.9962  21.9984  23.1193

          k =-0.1875-1.0625 0.1875 (  1341 PWs)   bands (ev):

     4.9886   7.4845   8.3420  14.0517  15.5878  21.3382

          k =-0.3125-0.9375 0.0625 (  1342 PWs)   bands (ev):

     5.2527   7.7528   8.4709  11.0499  18.9961  21.7169

          k =-0.1875-0.8125 0.1875 (  1341 PWs)   bands (ev):

     3.2136   8.5063   9.8460  14.2927  15.8560  21.5677

          k =-0.3125 0.3125 0.3125 (  1356 PWs)   bands (ev):

    -0.6079   9.0964  18.6506  18.6506  21.5567  21.5567

          k =-0.4375 0.4375 0.1875 (  1347 PWs)   bands (ev):

     0.4995   8.0300  14.4465  18.6597  20.5676  21.5892

          k = 0.4375-0.4375 1.0625 (  1344 PWs)   bands (ev):

     2.4161   7.6347  10.2338  16.4793  18.3787  25.2288

          k = 0.3125-0.3125 0.9375 (  1335 PWs)   bands (ev):

     5.0930   6.0643   8.6481  15.0223  16.7625  25.8272

          k =-0.3125 0.5625 0.3125 (  1355 PWs)   bands (ev):

     1.3242   6.7223  16.2012  16.4748  18.2117  23.2696

          k = 0.5625-0.3125 1.1875 (  1348 PWs)   bands (ev):

     2.9561   6.1752  12.6394  13.7558  20.9085  22.0258

          k = 0.4375-0.1875 1.0625 (  1349 PWs)   bands (ev):

     5.3470   6.3266   8.8985  11.9556  20.2519  24.9120

          k =-0.3125-1.1875 0.3125 (  1344 PWs)   bands (ev):

     4.2809   5.3974  10.8780  15.2641  17.0194  25.9475

          k =-0.4375 0.4375 0.4375 (  1344 PWs)   bands (ev):

     1.8721   5.1291  18.9110  18.9110  19.8867  19.8867

          k = 0.4375-0.4375 1.3125 (  1347 PWs)   bands (ev):

     3.2240   4.3278  14.9424  17.2085  19.0235  22.0846

     the Fermi energy is     7.8685 ev

!    total energy              =      -5.03909815 Ry
     Harris-Foulkes estimate   =      -5.03909814 Ry
     estimated scf accuracy    <       0.00000008 Ry

     The total energy is the sum of the following terms:

     one-electron contribution =       2.94575950 Ry
     hartree contribution      =       0.00603824 Ry
     xc contribution           =      -2.58987299 Ry
     ewald contribution        =      -5.40101553 Ry
     smearing contrib. (-TS)   =      -0.00000738 Ry

     convergence has been achieved in   4 iterations

     Forces acting on atoms (cartesian axes, Ry/au):

     atom    1 type  1   force =     0.00000000    0.00000000    0.00000000

     Total force =     0.000000     Total SCF correction =     0.000000


     Computing stress (Cartesian axis) and pressure

          total   stress  (Ry/bohr**3)                   (kbar)     P=       -4.75
  -0.00003231   0.00000000   0.00000000           -4.75        0.00        0.00
   0.00000000  -0.00003231  -0.00000000            0.00       -4.75       -0.00
   0.00000000  -0.00000000  -0.00003231            0.00       -0.00       -4.75


     Writing output data file /home/alessandro/scratch/Al_bulk.save/

     init_run     :      0.39s CPU      0.39s WALL (       1 calls)
     electrons    :      2.72s CPU      2.75s WALL (       1 calls)
     forces       :      0.05s CPU      0.05s WALL (       1 calls)
     stress       :      0.27s CPU      0.27s WALL (       1 calls)

     Called by init_run:
     wfcinit      :      0.18s CPU      0.18s WALL (       1 calls)
     potinit      :      0.01s CPU      0.01s WALL (       1 calls)
     hinit0       :      0.18s CPU      0.18s WALL (       1 calls)

     Called by electrons:
     c_bands      :      2.25s CPU      2.27s WALL (       5 calls)
     sum_band     :      0.42s CPU      0.42s WALL (       5 calls)
     v_of_rho     :      0.05s CPU      0.05s WALL (       5 calls)
     newd         :      0.02s CPU      0.02s WALL (       5 calls)
     mix_rho      :      0.00s CPU      0.00s WALL (       5 calls)

     Called by c_bands:
     init_us_2    :      0.14s CPU      0.14s WALL (     780 calls)
     cegterg      :      2.15s CPU      2.16s WALL (     300 calls)

     Called by sum_band:
     sum_band:bec :      0.00s CPU      0.00s WALL (     300 calls)
     addusdens    :      0.02s CPU      0.02s WALL (       5 calls)

     Called by *egterg:
     h_psi        :      1.82s CPU      1.83s WALL (    1114 calls)
     s_psi        :      0.06s CPU      0.06s WALL (    1114 calls)
     g_psi        :      0.01s CPU      0.01s WALL (     754 calls)
     cdiaghg      :      0.05s CPU      0.05s WALL (     994 calls)

     Called by h_psi:
     h_psi:calbec :      0.07s CPU      0.07s WALL (    1114 calls)
     vloc_psi     :      1.68s CPU      1.69s WALL (    1114 calls)
     add_vuspsi   :      0.06s CPU      0.06s WALL (    1114 calls)

     General routines
     calbec       :      0.11s CPU      0.11s WALL (    1714 calls)
     fft          :      0.01s CPU      0.01s WALL (      81 calls)
     ffts         :      0.00s CPU      0.00s WALL (       5 calls)
     fftw         :      1.65s CPU      1.66s WALL (   12018 calls)

     Parallel routines

     PWSCF        :      3.71s CPU      3.75s WALL


   This run was terminated on:  21:36:40   9Jun2020            

=------------------------------------------------------------------------------=
   JOB DONE.
=------------------------------------------------------------------------------=
